# vtk DataFile Version 3.0
Output from R2
ASCII
DATASET UNSTRUCTURED_GRID
POINTS       2188 double
    -5.00000     0.00000   0.
     0.00000     0.00000   0.
     1.00000     0.05000   0.
     2.00000     0.10000   0.
     3.00000     0.12000   0.
     4.00000     0.14000   0.
     5.00000     0.18000   0.
     6.00000     0.22000   0.
     7.00000     0.20000   0.
     8.00000     0.18000   0.
     9.00000     0.11000   0.
    10.00000     0.05000   0.
    11.00000     0.02000   0.
    12.00000    -0.01000   0.
    13.00000    -0.06000   0.
    14.00000    -0.11000   0.
    15.00000    -0.15000   0.
    16.00000    -0.19000   0.
    17.00000    -0.15000   0.
    18.00000    -0.11000   0.
    19.00000    -0.05000   0.
    20.00000     0.00000   0.
    21.00000    -0.07000   0.
    22.00000    -0.13000   0.
    23.00000    -0.08000   0.
    24.00000    -0.03000   0.
    25.00000     0.03000   0.
    26.00000     0.09000   0.
    27.00000     0.09000   0.
    28.00000     0.09000   0.
    29.00000     0.12000   0.
    30.00000     0.15000   0.
    31.00000     0.16000   0.
    32.00000     0.16000   0.
    33.00000     0.21000   0.
    34.00000     0.26000   0.
    35.00000     0.24000   0.
    36.00000     0.22000   0.
    37.00000     0.35000   0.
    37.99000     0.48000   0.
    38.99000     0.48000   0.
    39.99000     0.48000   0.
    40.99000     0.55000   0.
    41.99000     0.62000   0.
    42.98000     0.73000   0.
    43.98000     0.78000   0.
    44.98000     0.83000   0.
    45.98000     0.88000   0.
    46.98000     0.93000   0.
    47.98000     0.98000   0.
    48.98000     0.94000   0.
    49.98000     0.90000   0.
    50.98000     0.86000   0.
    51.98000     0.82000   0.
    52.98000     0.88000   0.
    53.98000     0.93000   0.
    54.98000     0.89000   0.
    55.98000     0.85000   0.
    56.98000     0.80000   0.
    57.98000     0.75000   0.
    58.98000     0.78000   0.
    59.98000     0.80000   0.
    60.98000     0.80000   0.
    61.98000     0.80000   0.
    62.99000     0.81000   0.
    63.99000     0.82000   0.
    64.99000     0.81000   0.
    65.99000     0.81000   0.
    66.99000     0.83000   0.
    67.99000     0.85000   0.
    68.99000     0.87000   0.
    69.99000     0.90000   0.
    70.99000     1.00000   0.
    71.98000     1.10000   0.
    72.98000     1.20000   0.
    73.98000     1.29000   0.
    74.98000     1.34000   0.
    75.97000     1.40000   0.
    76.97000     1.46000   0.
    77.97000     1.51000   0.
    78.97000     1.41000   0.
    79.97000     1.32000   0.
    80.97000     1.37000   0.
    81.97000     1.42000   0.
    82.97000     1.37000   0.
    83.97000     1.32000   0.
    84.97000     1.35000   0.
    85.97000     1.37000   0.
    86.97000     1.40000   0.
    87.97000     1.42000   0.
    88.97000     1.39000   0.
    89.97000     1.37000   0.
    90.97000     1.42000   0.
    91.97000     1.47000   0.
    92.97000     1.48000   0.
    93.97000     1.49000   0.
    94.97000     1.50000   0.
    95.98000     1.50000   0.
    96.98000     1.52000   0.
    97.98000     1.54000   0.
    98.98000     1.54000   0.
    99.98000     1.54000   0.
   100.98000     1.58000   0.
   101.98000     1.61000   0.
   102.98000     1.60000   0.
   103.98000     1.59000   0.
   104.98000     1.62000   0.
   105.98000     1.64000   0.
   106.98000     1.68000   0.
   107.98000     1.71000   0.
   108.98000     1.73000   0.
   109.99000     1.76000   0.
   110.99000     1.81000   0.
   111.99000     1.85000   0.
   112.99000     1.84000   0.
   113.99000     1.83000   0.
   114.99000     1.84000   0.
   115.99000     1.85000   0.
   116.99000     1.86000   0.
   117.99000     1.86000   0.
   118.99000     1.83000   0.
   119.99000     1.81000   0.
   120.99000     1.86000   0.
   121.99000     1.91000   0.
   122.99000     1.96000   0.
   123.99000     2.03000   0.
   124.99000     2.14000   0.
   125.98000     2.25000   0.
   126.98000     2.34000   0.
   131.98000     2.34000   0.
    -5.00000    -5.00000   0.
    -1.74000    -5.00000   0.
     1.52000    -4.92000   0.
     4.78000    -4.83000   0.
     8.05000    -4.82000   0.
    11.31000    -4.99000   0.
    14.57000    -5.13000   0.
    17.83000    -5.12000   0.
    21.09000    -5.07000   0.
    24.35000    -5.01000   0.
    27.61000    -4.91000   0.
    30.88000    -4.85000   0.
    34.14000    -4.74000   0.
    37.40000    -4.59000   0.
    40.66000    -4.47000   0.
    43.92000    -4.22000   0.
    47.18000    -4.06000   0.
    50.44000    -4.12000   0.
    53.70000    -4.09000   0.
    56.97000    -4.20000   0.
    60.23000    -4.20000   0.
    63.49000    -4.18000   0.
    66.75000    -4.17000   0.
    70.01000    -4.10000   0.
    73.27000    -3.77000   0.
    76.53000    -3.57000   0.
    79.79000    -3.66000   0.
    83.06000    -3.64000   0.
    86.32000    -3.62000   0.
    89.58000    -3.62000   0.
    92.84000    -3.52000   0.
    96.10000    -3.50000   0.
    99.36000    -3.46000   0.
   102.62000    -3.40000   0.
   105.89000    -3.36000   0.
   109.15000    -3.26000   0.
   112.41000    -3.16000   0.
   115.67000    -3.15000   0.
   118.93000    -3.17000   0.
   122.19000    -3.08000   0.
   125.45000    -2.81000   0.
   128.71000    -2.66000   0.
   131.98000    -2.66000   0.
  -639.88000     0.00000   0.
  -639.88000  -385.93000   0.
   766.86000     2.34000   0.
   766.86000  -385.93000   0.
    -3.07439     0.00000   0.
    -1.69523     0.00000   0.
    -0.70746     0.00000   0.
     0.50000     0.02500   0.
     1.50000     0.07500   0.
     2.50000     0.11000   0.
     3.50000     0.13000   0.
     4.50000     0.16000   0.
     5.50000     0.20000   0.
     6.50000     0.21000   0.
     7.50000     0.19000   0.
     8.50000     0.14500   0.
     9.50000     0.08000   0.
    10.50000     0.03500   0.
    11.50000     0.00500   0.
    12.50000    -0.03500   0.
    13.50000    -0.08500   0.
    14.50000    -0.13000   0.
    15.50000    -0.17000   0.
    16.50000    -0.17000   0.
    17.50000    -0.13000   0.
    18.50000    -0.08000   0.
    19.50000    -0.02500   0.
    20.50000    -0.03500   0.
    21.50000    -0.10000   0.
    22.50000    -0.10500   0.
    23.50000    -0.05500   0.
    24.50000     0.00000   0.
    25.50000     0.06000   0.
    26.50000     0.09000   0.
    27.50000     0.09000   0.
    28.50000     0.10500   0.
    29.50000     0.13500   0.
    30.50000     0.15500   0.
    31.50000     0.16000   0.
    32.50000     0.18500   0.
    33.50000     0.23500   0.
    34.50000     0.25000   0.
    35.50000     0.23000   0.
    36.50000     0.28500   0.
    37.49500     0.41500   0.
    38.49000     0.48000   0.
    39.49000     0.48000   0.
    40.49000     0.51500   0.
    41.49000     0.58500   0.
    42.48500     0.67500   0.
    43.48000     0.75500   0.
    44.48000     0.80500   0.
    45.48000     0.85500   0.
    46.48000     0.90500   0.
    47.48000     0.95500   0.
    48.48000     0.96000   0.
    49.48000     0.92000   0.
    50.48000     0.88000   0.
    51.48000     0.84000   0.
    52.48000     0.85000   0.
    53.48000     0.90500   0.
    54.48000     0.91000   0.
    55.48000     0.87000   0.
    56.48000     0.82500   0.
    57.48000     0.77500   0.
    58.48000     0.76500   0.
    59.48000     0.79000   0.
    60.48000     0.80000   0.
    61.48000     0.80000   0.
    62.48500     0.80500   0.
    63.49000     0.81500   0.
    64.49000     0.81500   0.
    65.49000     0.81000   0.
    66.49000     0.82000   0.
    67.49000     0.84000   0.
    68.49000     0.86000   0.
    69.49000     0.88500   0.
    70.49000     0.95000   0.
    71.48500     1.05000   0.
    72.48000     1.15000   0.
    73.48000     1.24500   0.
    74.48000     1.31500   0.
    75.47500     1.37000   0.
    76.47000     1.43000   0.
    77.47000     1.48500   0.
    78.47000     1.46000   0.
    79.47000     1.36500   0.
    80.47000     1.34500   0.
    81.47000     1.39500   0.
    82.47000     1.39500   0.
    83.47000     1.34500   0.
    84.47000     1.33500   0.
    85.47000     1.36000   0.
    86.47000     1.38500   0.
    87.47000     1.41000   0.
    88.47000     1.40500   0.
    89.47000     1.38000   0.
    90.47000     1.39500   0.
    91.47000     1.44500   0.
    92.47000     1.47500   0.
    93.47000     1.48500   0.
    94.47000     1.49500   0.
    95.47500     1.50000   0.
    96.48000     1.51000   0.
    97.48000     1.53000   0.
    98.48000     1.54000   0.
    99.48000     1.54000   0.
   100.48000     1.56000   0.
   101.48000     1.59500   0.
   102.48000     1.60500   0.
   103.48000     1.59500   0.
   104.48000     1.60500   0.
   105.48000     1.63000   0.
   106.48000     1.66000   0.
   107.48000     1.69500   0.
   108.48000     1.72000   0.
   109.48500     1.74500   0.
   110.49000     1.78500   0.
   111.49000     1.83000   0.
   112.49000     1.84500   0.
   113.49000     1.83500   0.
   114.49000     1.83500   0.
   115.49000     1.84500   0.
   116.49000     1.85500   0.
   117.49000     1.86000   0.
   118.49000     1.84500   0.
   119.49000     1.82000   0.
   120.49000     1.83500   0.
   121.49000     1.88500   0.
   122.49000     1.93500   0.
   123.49000     1.99500   0.
   124.49000     2.08500   0.
   125.48500     2.19500   0.
   126.48000     2.29500   0.
   127.68746     2.34000   0.
   128.67523     2.34000   0.
   130.05439     2.34000   0.
    -3.37000    -5.00000   0.
    -0.11000    -4.96000   0.
     3.15000    -4.87500   0.
     6.41500    -4.82500   0.
     9.68000    -4.90500   0.
    12.94000    -5.06000   0.
    16.20000    -5.12500   0.
    19.46000    -5.09500   0.
    22.72000    -5.04000   0.
    25.98000    -4.96000   0.
    29.24500    -4.88000   0.
    32.51000    -4.79500   0.
    35.77000    -4.66500   0.
    39.03000    -4.53000   0.
    42.29000    -4.34500   0.
    45.55000    -4.14000   0.
    48.81000    -4.09000   0.
    52.07000    -4.10500   0.
    55.33500    -4.14500   0.
    58.60000    -4.20000   0.
[...]
POINT_DATA      2188
CELL_DATA      4025
SCALARS Resistivity(ohm.m) double 1
LOOKUP_TABLE default
           432.19531           430.91457           439.55566           433.21567           433.85174           174.97497           433.03829           433.27567           433.48182           431.65263           377.13904           685.95431           433.18638           433.30216           437.61018           468.21109           434.30959           432.40290           371.93411           437.19398           432.77387          1050.15312           434.57237           423.06180           432.80106           321.68994           453.81420           277.41501           468.21656           212.42052           184.97491           436.38756           434.65215           432.77045           361.31446           738.39401           671.41901           641.16197           232.88215           432.71838           412.43334           574.24430          7705.79852          1202.61578           432.64406           433.14076           469.68105           367.04050           437.26560           380.28950           433.46490           435.31404           181.25661           271.23872           194.52960           603.07919           432.07708           774.53338           366.70398           882.40645           433.17668           432.41785           331.92060           784.86808           433.31477          2430.84240           308.93645           436.53622           652.38384           432.40347           460.82296           990.62337           451.21895           373.88388           604.95844           423.17431           427.66595           198.59821          1002.24688           450.57480           870.34221          1114.33288           432.40602           294.06084          1065.75531           432.46124           230.83492           433.35025           201.08984           301.92127           471.37312           433.65990           433.36045           432.62902           251.87621           451.94865           432.90520          1075.08106           433.07120           383.28120           433.81760           441.76783           469.30989           480.31301           962.71132           792.46398           433.53076           433.95516           436.96771           438.07159           385.75534           436.00032           432.63024           447.50047           433.17879           786.69249          2823.93297           433.52338           432.90213           702.11733           394.56448           435.75923           434.79843           205.24820           254.85920           439.75557           830.51325          1061.86496           646.94495           432.92604           636.33994           515.27218           445.76229           431.35547           240.88975           433.59614           437.71647           435.75471           444.79618           440.76218           978.91917           188.79801           304.28601           276.09931           202.28082           432.44845           239.50239           538.12761           237.47920           435.06937           574.16202          1097.07803           440.60038           443.41993           434.02319           504.12416           435.55308           482.71028          1538.86294           447.23951           500.04806           604.03829           432.86483           892.98353           894.74574           197.35244           434.57913           433.32572           432.71302           656.38760           910.78689           432.61546           432.44944          1398.56729           407.89575           377.43684           455.74756           449.99196           434.33254           432.79045           451.02717           433.27407           280.32577           786.94291           407.84037          1297.80762           749.83446           364.32048           808.79719          1383.71575           472.97836           641.64372           432.99526           454.93058           431.85974           457.56169           432.39256           432.63771           636.26657           433.63626           451.33280           164.72527           486.27211           440.24364          1602.40916           496.95110           162.67116           801.97835           438.69533           438.51058           457.69571           630.41585           551.82519           432.43684           432.71921           278.80600           442.10635           591.01583           618.44164           434.61974           481.76739           432.55659           371.24048           854.79533          1436.39166           435.70091           199.03733          1318.52142           454.81647           446.18732           437.82639           637.52821           432.97428           933.93953           450.37023           437.05159           645.99148           432.53848           432.40311           627.68028           432.68676           434.31004           469.72629           440.68189           273.56696           432.86813           461.49398           434.08770           436.18383           432.53433           408.78408           447.54756           369.50323           639.21581           739.52856           376.44649           432.98496          3283.84707           820.81910           437.72831           330.59529           557.02397           436.44481           432.43664           596.86664           432.50400           621.69746           436.14451           438.23673           458.99080           431.20900           487.24564           435.21140           617.09970           433.28220           462.46670           435.92079           554.70571           438.71683           434.22558           770.76215           433.42471           508.69062         13082.94196           444.90098           441.58659           602.16141           432.63971           432.64877           433.49147           379.10000           429.23188           816.24126           432.44836           491.48495           470.71113           481.75151           451.73125           482.85591           295.77962           293.48452          1506.45252           436.12222           551.06648           351.15498           432.43750           545.67563           474.16259           390.21050           435.40646           930.35321           485.69388           432.56265           577.94453           458.33243           427.66171           481.17629           245.68901           435.18420           902.79830           198.80983           432.44738           432.54335           414.38836           433.72526           436.58892           262.58879           433.03411           451.34585           433.14978           284.28722           713.13606           239.78584           959.25458           204.62941           433.02479           442.50578           432.44923           432.70762           432.58714          1051.30312           432.41525           432.46946           434.54273          1001.68687           432.43592           291.70861           178.42749           439.41638           433.22974           217.34558           441.61578           432.53165           452.73958           436.63979           433.06569           432.49856           432.50156           760.18507           439.58764           198.07982           444.54269           459.13195           433.19321           499.26697           621.37503           434.96422           406.95587           433.57806           472.77791           980.77854           651.83186           338.74974           607.95085           899.72679           246.84963           433.34374           287.91395           361.57301           835.47205           606.16985           432.67755           491.82260           460.44297           433.00087           300.52615           807.38351           433.14712           444.66923         11986.41853           743.19488           297.92262           433.37720           822.07393           459.98231           432.39192           452.01073           445.92469           571.42551           432.87496           380.61620           446.13543           183.35406           293.96182           619.41718           625.56123           433.00606           303.36855           432.97476           432.98323           421.61154           432.95399           159.83840           433.44763           261.58307           432.43708           629.64863           551.61311           438.60210           521.00010           434.35393           433.36530           580.48943           259.47195           433.77685           441.26294           614.41880           464.30999           409.81923           710.02523           432.45041           408.23972           467.00482           460.28963           433.46787           694.03599           433.41824          1070.16712           257.91573           529.79505           423.23776           433.39046           416.89145           444.51140           434.20866           446.85433           447.83097           420.23270           412.57586           434.75174           438.84610           219.42500           215.98286           433.29860           437.79641           432.69260           207.87714          1001.61394           433.77748           633.64275           507.55700           617.00115           432.99705           542.30505           590.28806           181.26276           248.24449           433.20436           167.29378           320.23526           417.43260           223.69269           432.54277           332.22042           499.58681           723.16319           440.84294           430.53372           431.47259           434.40160           673.08387           530.33861           241.65742           434.44600           318.88224           526.18583           432.69356           433.69254           608.98903           971.44547           628.89278           432.70850           432.58467           694.53422           368.87367           885.76801           662.75842           786.08556           432.67319           432.40810           433.61577           415.28481           433.86085           714.04362           432.39405           448.65086           433.30313           441.38711           432.45402           433.03737           433.11862           432.39265           432.49465           432.55996           432.39341           289.13491           373.41010           471.86931           201.31307           457.50585           447.31166           386.69826           432.44910           432.42909           449.24928           252.53957           432.40467           432.88839           337.24433           435.28934           432.52526           413.43142          1040.26434           454.61668           432.38479           568.88457           465.49902           434.37079           432.50653           432.48105           256.74564           202.50596           341.41063           236.65019           382.71424           448.64358           435.51494           433.78086           449.32266           230.64922           349.54808           440.49820           532.60606           433.96285           464.27901           432.42901           440.16141           204.12630           979.24371           150.65812           435.47034           434.35512           220.11044           435.14849           349.58912           437.86296           883.99957          1344.87144           420.15543           432.87033           432.47454           221.19287           432.58942           663.84515           191.13829           446.40117           434.16730           324.68111           433.03061           432.62596           514.36589           439.80161           448.77331           432.42561           432.39266           475.45407           475.83108           432.40433           432.42643           432.41591           538.72713           829.07533          1578.18532          1676.70180          1720.77131          1731.69942           434.24930           422.92845           433.59231           432.43776           433.24768           545.57642           432.78469           432.47909           432.88536           387.02550           246.35640           433.71570           432.45293           432.39247           432.38498           487.12354           432.39479           425.08106          1342.94868           432.43788           433.20170           433.02936           433.37266           547.42716           438.76385           210.94445           432.55044           432.41572           433.01634           486.89323           973.24341           765.26235           432.79789          1151.75730           320.31130           432.41526           741.31928          1078.30151           555.23514           432.39236           432.40195           432.78420           433.52439           432.44699           432.47074           432.39255           334.05023           300.15293           435.53288           659.46693           359.95446           288.52235           570.15493          2371.64693           432.40533           327.35947           444.68447           441.65783           949.77528           432.53968           434.77308           279.79194           432.51131           289.70839           406.92722           594.66693           458.71168           465.93233           432.49345           453.29435           440.36319           432.40551           432.40593           216.19636           424.79645           455.36374           432.39356           437.84307           432.42950           262.38931           446.64625           432.40604           432.41591           432.40479           622.59340           437.40927           504.79243           432.99958           557.25633           758.27729           752.92457           519.37397           432.41719           858.48825           432.87344           701.19858           637.35466           446.50330           435.46972           432.65128           432.61365           432.40562           432.60712           432.71386           583.59078           602.09895           786.60056          1141.13896           159.54837           433.67103           432.46937           432.59519           432.54899           235.99288           432.85524           369.38480           436.86973           432.85726           326.91752           432.49274           198.08294           856.97681           570.13563           639.50134           417.01677           428.26710           821.35643           433.33827           167.29587           432.47448           432.38146           432.39201           453.69218           432.86338           432.41591           433.23714           440.36765           437.45799           569.76455          3192.24430           429.14854           432.48779           435.18669           433.49822           757.70935           435.28305           451.77197           402.65611           432.41386           544.35783           431.44681           433.64182           442.07244           372.19164           432.76990           560.45400          1080.63727           432.78425           430.35814           442.36996           436.07086           324.17173           432.42548           432.49335           998.50800           432.67465           435.57831           433.16773           435.44501           437.50363           426.82184           433.15879           690.86393           435.17073           434.15226          1297.57934        137913.96302           432.91933           168.51062           436.86312           832.30994           401.92452          1329.08768           650.35965           791.83912           414.48907           433.65712           496.70600           432.43896           432.48642           261.90993           432.94566           346.41909           571.32746           245.35777           433.29363           458.71390           432.48591           552.05582           470.64488           432.58880           334.52874           307.52251           499.09999           433.90286           441.32912           463.97432           433.18243          1108.19650           488.71604           460.20169           431.69682           434.58124           287.08777           432.62727           332.54000           445.21253           439.20919           432.91993           509.35561           432.45222           439.66056           433.30216           432.52682           352.64377           432.46377           402.98515           343.73208           469.54792           665.95200           432.42636           433.49774           848.09618           444.74415           432.57732           416.05300           435.74186           305.31255           432.93106           397.05242           236.92202           432.52212           852.18672           432.48119           209.06646           681.03140           438.94078           432.65118           446.78398           215.00402           433.59987           433.00434           180.96458           432.57325           267.80730           444.45388           602.42824           432.41458           432.52274           433.66128          1023.82660           444.25755           747.28467           477.66499           395.20025           433.37531           474.59965           373.06902           450.99670           433.24958           736.04867           433.80561           446.13388          1039.94831           327.18659           533.29586           432.39477           432.44166           432.79128           439.59507           466.75385           436.14381           754.72573           438.46748           453.42451           432.43822           360.94057           353.63531           432.41570           435.62464           937.91883           432.39159           438.66153           434.50239           432.47571           432.41706           434.66836           439.99566           716.48815           406.22455           434.38843           461.38764           292.44576           248.88414           473.34753           432.65384           429.43064           648.53336           433.21244           609.31219           432.42545           602.43336           432.48398           433.35658          1391.25358           432.41516           529.61275           427.25844           432.47617           276.55657           432.82863           432.62634           663.33396           432.89589           433.40074           433.37236           437.66823           570.37808           721.76214           432.55958           676.02414           440.06135          1632.53614          1799.77303          1757.79927           504.56724           764.89263           440.56529           432.41567           433.01767           576.43041           432.76874           502.30131           433.94919           432.51703           439.61890           547.00198           455.79066           432.64118           432.46556           324.93894           433.15961          1429.74605           436.95986           432.72907           432.55805           432.76622           433.10503           435.60942           432.44668           586.89466           794.88772           432.56866           432.40560           696.13896           432.82558           707.44119           482.10064           432.40576           432.38189           432.15959           432.70548           229.51052           289.74435           433.06371           442.23786           433.72572           597.55017           431.12101           433.61530           433.00824           435.87945           463.32454           432.40269           466.23179           433.54082          1154.32647           432.76156           752.71023           191.35514           169.46834           192.65353           257.01515           432.39175           629.24566           294.29763           602.76610           432.39233           193.64462  