# vtk DataFile Version 3.0
Output from R2
ASCII
DATASET UNSTRUCTURED_GRID
POINTS       2188 double
    -5.00000     0.00000   0.
     0.00000     0.00000   0.
     1.00000     0.05000   0.
     2.00000     0.10000   0.
     3.00000     0.12000   0.
     4.00000     0.14000   0.
     5.00000     0.18000   0.
     6.00000     0.22000   0.
     7.00000     0.20000   0.
     8.00000     0.18000   0.
     9.00000     0.11000   0.
    10.00000     0.05000   0.
    11.00000     0.02000   0.
    12.00000    -0.01000   0.
    13.00000    -0.06000   0.
    14.00000    -0.11000   0.
    15.00000    -0.15000   0.
    16.00000    -0.19000   0.
    17.00000    -0.15000   0.
    18.00000    -0.11000   0.
    19.00000    -0.05000   0.
    20.00000     0.00000   0.
    21.00000    -0.07000   0.
    22.00000    -0.13000   0.
    23.00000    -0.08000   0.
    24.00000    -0.03000   0.
    25.00000     0.03000   0.
    26.00000     0.09000   0.
    27.00000     0.09000   0.
    28.00000     0.09000   0.
    29.00000     0.12000   0.
    30.00000     0.15000   0.
    31.00000     0.16000   0.
    32.00000     0.16000   0.
    33.00000     0.21000   0.
    34.00000     0.26000   0.
    35.00000     0.24000   0.
    36.00000     0.22000   0.
    37.00000     0.35000   0.
    37.99000     0.48000   0.
    38.99000     0.48000   0.
    39.99000     0.48000   0.
    40.99000     0.55000   0.
    41.99000     0.62000   0.
    42.98000     0.73000   0.
    43.98000     0.78000   0.
    44.98000     0.83000   0.
    45.98000     0.88000   0.
    46.98000     0.93000   0.
    47.98000     0.98000   0.
    48.98000     0.94000   0.
    49.98000     0.90000   0.
    50.98000     0.86000   0.
    51.98000     0.82000   0.
    52.98000     0.88000   0.
    53.98000     0.93000   0.
    54.98000     0.89000   0.
    55.98000     0.85000   0.
    56.98000     0.80000   0.
    57.98000     0.75000   0.
    58.98000     0.78000   0.
    59.98000     0.80000   0.
    60.98000     0.80000   0.
    61.98000     0.80000   0.
    62.99000     0.81000   0.
    63.99000     0.82000   0.
    64.99000     0.81000   0.
    65.99000     0.81000   0.
    66.99000     0.83000   0.
    67.99000     0.85000   0.
    68.99000     0.87000   0.
    69.99000     0.90000   0.
    70.99000     1.00000   0.
    71.98000     1.10000   0.
    72.98000     1.20000   0.
    73.98000     1.29000   0.
    74.98000     1.34000   0.
    75.97000     1.40000   0.
    76.97000     1.46000   0.
    77.97000     1.51000   0.
    78.97000     1.41000   0.
    79.97000     1.32000   0.
    80.97000     1.37000   0.
    81.97000     1.42000   0.
    82.97000     1.37000   0.
    83.97000     1.32000   0.
    84.97000     1.35000   0.
    85.97000     1.37000   0.
    86.97000     1.40000   0.
    87.97000     1.42000   0.
    88.97000     1.39000   0.
    89.97000     1.37000   0.
    90.97000     1.42000   0.
    91.97000     1.47000   0.
    92.97000     1.48000   0.
    93.97000     1.49000   0.
    94.97000     1.50000   0.
    95.98000     1.50000   0.
    96.98000     1.52000   0.
    97.98000     1.54000   0.
    98.98000     1.54000   0.
    99.98000     1.54000   0.
   100.98000     1.58000   0.
   101.98000     1.61000   0.
   102.98000     1.60000   0.
   103.98000     1.59000   0.
   104.98000     1.62000   0.
   105.98000     1.64000   0.
   106.98000     1.68000   0.
   107.98000     1.71000   0.
   108.98000     1.73000   0.
   109.99000     1.76000   0.
   110.99000     1.81000   0.
   111.99000     1.85000   0.
   112.99000     1.84000   0.
   113.99000     1.83000   0.
   114.99000     1.84000   0.
   115.99000     1.85000   0.
   116.99000     1.86000   0.
   117.99000     1.86000   0.
   118.99000     1.83000   0.
   119.99000     1.81000   0.
   120.99000     1.86000   0.
   121.99000     1.91000   0.
   122.99000     1.96000   0.
   123.99000     2.03000   0.
   124.99000     2.14000   0.
   125.98000     2.25000   0.
   126.98000     2.34000   0.
   131.98000     2.34000   0.
    -5.00000    -5.00000   0.
    -1.74000    -5.00000   0.
     1.52000    -4.92000   0.
     4.78000    -4.83000   0.
     8.05000    -4.82000   0.
    11.31000    -4.99000   0.
    14.57000    -5.13000   0.
    17.83000    -5.12000   0.
    21.09000    -5.07000   0.
    24.35000    -5.01000   0.
    27.61000    -4.91000   0.
    30.88000    -4.85000   0.
    34.14000    -4.74000   0.
    37.40000    -4.59000   0.
    40.66000    -4.47000   0.
    43.92000    -4.22000   0.
    47.18000    -4.06000   0.
    50.44000    -4.12000   0.
    53.70000    -4.09000   0.
    56.97000    -4.20000   0.
    60.23000    -4.20000   0.
    63.49000    -4.18000   0.
    66.75000    -4.17000   0.
    70.01000    -4.10000   0.
    73.27000    -3.77000   0.
    76.53000    -3.57000   0.
    79.79000    -3.66000   0.
    83.06000    -3.64000   0.
    86.32000    -3.62000   0.
    89.58000    -3.62000   0.
    92.84000    -3.52000   0.
    96.10000    -3.50000   0.
    99.36000    -3.46000   0.
   102.62000    -3.40000   0.
   105.89000    -3.36000   0.
   109.15000    -3.26000   0.
   112.41000    -3.16000   0.
   115.67000    -3.15000   0.
   118.93000    -3.17000   0.
   122.19000    -3.08000   0.
   125.45000    -2.81000   0.
   128.71000    -2.66000   0.
   131.98000    -2.66000   0.
  -639.88000     0.00000   0.
  -639.88000  -385.93000   0.
   766.86000     2.34000   0.
   766.86000  -385.93000   0.
    -3.07439     0.00000   0.
    -1.69523     0.00000   0.
    -0.70746     0.00000   0.
     0.50000     0.02500   0.
     1.50000     0.07500   0.
     2.50000     0.11000   0.
     3.50000     0.13000   0.
     4.50000     0.16000   0.
     5.50000     0.20000   0.
     6.50000     0.21000   0.
     7.50000     0.19000   0.
     8.50000     0.14500   0.
     9.50000     0.08000   0.
    10.50000     0.03500   0.
    11.50000     0.00500   0.
    12.50000    -0.03500   0.
    13.50000    -0.08500   0.
    14.50000    -0.13000   0.
    15.50000    -0.17000   0.
    16.50000    -0.17000   0.
    17.50000    -0.13000   0.
    18.50000    -0.08000   0.
    19.50000    -0.02500   0.
    20.50000    -0.03500   0.
    21.50000    -0.10000   0.
    22.50000    -0.10500   0.
    23.50000    -0.05500   0.
    24.50000     0.00000   0.
    25.50000     0.06000   0.
    26.50000     0.09000   0.
    27.50000     0.09000   0.
    28.50000     0.10500   0.
    29.50000     0.13500   0.
    30.50000     0.15500   0.
    31.50000     0.16000   0.
    32.50000     0.18500   0.
    33.50000     0.23500   0.
    34.50000     0.25000   0.
    35.50000     0.23000   0.
    36.50000     0.28500   0.
    37.49500     0.41500   0.
    38.49000     0.48000   0.
    39.49000     0.48000   0.
    40.49000     0.51500   0.
    41.49000     0.58500   0.
    42.48500     0.67500   0.
    43.48000     0.75500   0.
    44.48000     0.80500   0.
    45.48000     0.85500   0.
    46.48000     0.90500   0.
    47.48000     0.95500   0.
    48.48000     0.96000   0.
    49.48000     0.92000   0.
    50.48000     0.88000   0.
    51.48000     0.84000   0.
    52.48000     0.85000   0.
    53.48000     0.90500   0.
    54.48000     0.91000   0.
    55.48000     0.87000   0.
    56.48000     0.82500   0.
    57.48000     0.77500   0.
    58.48000     0.76500   0.
    59.48000     0.79000   0.
    60.48000     0.80000   0.
    61.48000     0.80000   0.
    62.48500     0.80500   0.
    63.49000     0.81500   0.
    64.49000     0.81500   0.
    65.49000     0.81000   0.
    66.49000     0.82000   0.
    67.49000     0.84000   0.
    68.49000     0.86000   0.
    69.49000     0.88500   0.
    70.49000     0.95000   0.
    71.48500     1.05000   0.
    72.48000     1.15000   0.
    73.48000     1.24500   0.
    74.48000     1.31500   0.
    75.47500     1.37000   0.
    76.47000     1.43000   0.
    77.47000     1.48500   0.
    78.47000     1.46000   0.
    79.47000     1.36500   0.
    80.47000     1.34500   0.
    81.47000     1.39500   0.
    82.47000     1.39500   0.
    83.47000     1.34500   0.
    84.47000     1.33500   0.
    85.47000     1.36000   0.
    86.47000     1.38500   0.
    87.47000     1.41000   0.
    88.47000     1.40500   0.
    89.47000     1.38000   0.
    90.47000     1.39500   0.
    91.47000     1.44500   0.
    92.47000     1.47500   0.
    93.47000     1.48500   0.
    94.47000     1.49500   0.
    95.47500     1.50000   0.
    96.48000     1.51000   0.
    97.48000     1.53000   0.
    98.48000     1.54000   0.
    99.48000     1.54000   0.
   100.48000     1.56000   0.
   101.48000     1.59500   0.
   102.48000     1.60500   0.
   103.48000     1.59500   0.
   104.48000     1.60500   0.
   105.48000     1.63000   0.
   106.48000     1.66000   0.
   107.48000     1.69500   0.
   108.48000     1.72000   0.
   109.48500     1.74500   0.
   110.49000     1.78500   0.
   111.49000     1.83000   0.
   112.49000     1.84500   0.
   113.49000     1.83500   0.
   114.49000     1.83500   0.
   115.49000     1.84500   0.
   116.49000     1.85500   0.
   117.49000     1.86000   0.
   118.49000     1.84500   0.
   119.49000     1.82000   0.
   120.49000     1.83500   0.
   121.49000     1.88500   0.
   122.49000     1.93500   0.
   123.49000     1.99500   0.
   124.49000     2.08500   0.
   125.48500     2.19500   0.
   126.48000     2.29500   0.
   127.68746     2.34000   0.
   128.67523     2.34000   0.
   130.05439     2.34000   0.
    -3.37000    -5.00000   0.
    -0.11000    -4.96000   0.
     3.15000    -4.87500   0.
     6.41500    -4.82500   0.
     9.68000    -4.90500   0.
    12.94000    -5.06000   0.
    16.20000    -5.12500   0.
    19.46000    -5.09500   0.
    22.72000    -5.04000   0.
    25.98000    -4.96000   0.
    29.24500    -4.88000   0.
    32.51000    -4.79500   0.
    35.77000    -4.66500   0.
    39.03000    -4.53000   0.
    42.29000    -4.34500   0.
    45.55000    -4.14000   0.
    48.81000    -4.09000   0.
    52.07000    -4.10500   0.
    55.33500    -4.14500   0.
    58.60000    -4.20000   0.
[...]
POINT_DATA      2188
CELL_DATA      4025
SCALARS Resistivity(ohm.m) double 1
LOOKUP_TABLE default
           430.85428           459.09690           437.39383           433.03398           433.52335           249.28054           432.92181           433.13141           433.29660           429.90394           367.34711           569.37799           433.04368           433.17435           436.51364           456.83166           434.01960           432.39650           361.85683           436.16885           432.69389           765.29107           431.74821           417.92429           432.70664           361.96941           449.75211           274.74275           459.04677           194.77405           249.49901           435.22079           434.28515           432.65968           339.73218           603.33503           562.79733           560.88416           217.03168           432.65023           404.84633           532.89979          5831.33544           764.80381           432.61780           432.99931           463.67098           344.43965           435.98594           369.77649           433.31400           431.99219           293.75423           259.75560           259.50313           537.52970           429.89954           623.37515           354.02468           590.35577           433.01309           432.40701           394.65665           487.17971           433.14702          2322.14463           295.53963           435.38882           571.38527           432.40394           452.06099           804.49537           379.91587           362.42383           419.58762           417.92441           486.92640           268.59638           782.14076           446.56653           605.67506           788.08732           432.40066           275.46720           901.00491           432.44286           203.90683           432.87796           196.36568           297.60079           431.49670           433.44807           433.14363           432.58757           221.37839           446.77091           432.78551           704.57237           432.89463           460.02891           433.58594           440.22782           460.07958           468.22118           783.17672           656.61644           433.28923           433.59468           435.67197           436.91681           375.53621           434.93957           432.59529           462.61969           433.00273           720.07233          2231.79562           433.06420           432.80969           494.47058           371.75211           434.94512           434.10049           249.79422           224.52619           437.45040           660.00586           746.73275           576.07371           432.74797           555.24888           425.57141           443.19541           429.22718           223.07195           433.37852           436.72374           435.03873           442.81117           439.19611           724.67815           194.75475           283.15861           257.77030           193.92787           432.42896           345.28116           507.57683           213.33890           434.35456           520.74066           794.02296           439.74273           442.12255           433.67229           486.13448           434.81493           414.87636           877.32035           443.06861           419.16684           529.55532           432.75658           635.93090           769.26219           263.60297           434.22098           433.11819           432.62575           572.37790           683.43816           432.56289           432.43933          1049.44450           274.27024           366.33072           353.14475           400.53461           433.93772           432.71904           446.23999           433.09144           269.10856           610.23644           400.71741           800.15157           697.48393           370.38628           704.26278           821.24294           377.13002           567.73824           432.79582           447.53232           388.10064           452.84408           432.39013           432.58657           663.95502           433.41964           496.55525           216.86289           543.73240           439.04863          1102.67651           441.58649           186.93769           703.82032           437.43824           437.24521           450.49164           623.27093           685.34010           432.41908           432.64345           245.14876           440.07409           524.52309           552.10916           434.18610           468.84708           432.47065           361.26376           708.53121          1039.84194           434.92225           327.43173          1249.67120           447.26133           443.91912           436.15828           530.26130           432.88834           745.88974           449.55271           435.87610           531.18376           432.53357           432.39419           565.43100           432.56983           433.99345           459.64203           439.91060           347.92858           432.80333           454.07788           433.85540           435.40871           432.48443           384.06316           444.12818           356.76669           573.82482           649.92635           388.48828           432.83867          3541.25155           686.61579           436.46576           293.32156           578.00909           435.57469           432.42271           571.47716           432.50271           549.99971           434.98586           437.14392           450.44938           387.09671           484.13642           434.33548           604.97666           433.10767           458.85257           434.81062           512.68668           437.51492           433.78909           732.35924           433.24792           511.65346          5573.51859           443.24352           439.91345           601.92465           432.60084           432.58134           433.25266           367.40358           425.91125           721.81131           432.43322           478.97841           462.81677           457.44805           450.82599           470.47347           289.85212           299.60807           990.52144           435.25358           589.26155           431.81529           432.42376           621.47476           475.78114           381.37288           435.07928           884.62564           480.23777           432.55565           516.25660           453.35593           423.42827           469.52887           220.44906           434.83604           708.42305           242.48303           432.41623           432.45793           362.72836           433.47136           435.34337           240.38838           432.89455           445.93135           432.91525           250.44173           632.46338           253.35093           783.84536           189.48425           432.87313           441.39245           432.42377           432.58805           432.51206           745.06830           432.41336           432.42937           434.08024           714.61203           432.42476           403.72022           187.26649           314.69649           432.97184           264.57703           438.78252           432.47652           448.48499           435.50178           432.91600           432.43916           432.47492           826.19159           438.94734           263.41768           438.95823           458.82115           433.02053           494.00633           503.97271           434.39598           388.96330           433.33426           460.44247           731.22826           402.63855           316.62939           544.51042           907.09685           222.98502           432.09979           282.22347           446.62709           620.04952           567.85585           432.58433           417.37834           454.74423           432.83575           281.38074           714.51110           431.46548           440.88647          9214.69061           692.32088           285.58111           433.11181           610.80410           394.70884           432.38989           346.45731           441.75699           583.17345           432.76844           369.42906           442.36392           177.71284           263.60517           569.00119           503.00887           432.85706           232.23739           432.83315           432.84977           480.57452           432.81622           179.78049           433.07367           258.52292           432.41438           616.60110           438.76924           436.50953           499.23694           433.84466           433.22902           605.85284           245.65308           433.55502           439.00204           596.59070           455.98868           436.23212           696.22114           432.43247           400.77879           467.14055           454.03922           433.18579           600.14544           433.10511          1021.75440           290.76840           532.24872           500.20587           433.21991           411.03618           441.27552           433.81420           445.94600           443.04698           413.73148           406.11561           434.07968           437.09400           297.66138           196.48112           433.01423           436.18476           432.60115           222.70476           795.49846           433.52968           545.97223           543.02885           500.89567           432.88191           536.51243           604.44441           183.95485           334.10387           433.01076           198.34654           346.31938           466.90020           206.75961           432.47907           363.48991           487.88880           617.86733           438.91047           530.58273           428.75666           434.10176           643.29700           619.88803           222.69643           433.99412           234.96940           494.00288           431.70777           432.73921           561.52934          1104.56429           649.16829           432.64012           432.56720           482.65697           356.87315           737.92017           650.34396           706.03710           432.61342           432.41357           433.44863           389.86144           433.63737           615.50628           432.39988           424.44110           433.05077           438.80449           432.42877           432.87107           432.94668           432.39335           432.47378           432.52026           432.39231           282.85989           362.22359           451.69768           201.33455           450.83534           443.41367           375.84810           432.44718           432.41930           446.97020           267.90829           432.40562           432.79014           326.30221           434.51142           432.49397           406.50679           984.17450           449.37537           432.39295           664.45560           458.37239           433.91102           432.44469           432.46783           355.88640           201.64794           363.78086           313.46627           367.24333           447.99902           434.71285           433.49947           443.77274           208.47337           413.49974           439.92200           593.12182           433.68210           536.25245           432.42110           439.01780           204.44473           630.33756           172.00574           433.47711           433.84207           209.63643           434.48235           337.92691           436.51882           716.80999           993.88182           415.02874           432.77033           432.45944           213.31622           432.51917           563.39257           256.72682           444.48296           433.75571           307.18810           432.84348           432.52994           512.92020           438.44379           447.72838           432.41584           432.38548           471.51060           470.33433           432.40811           432.41264           432.40415           596.33841           659.37924          1114.85454           984.92091          1056.63658          1122.07170           433.82552           418.39867           433.37546           432.41686           432.71080           490.29330           432.70047           432.45688           432.78035           415.64332           218.81384           425.96177           432.42510           432.38252           432.38637           402.68585           432.39669           421.17740           851.21751           432.42837           433.05704           432.90250           433.23134           556.77717           437.99852           255.80156           432.54221           432.40483           432.92673           482.62430          1161.71169           708.51450           432.72412           767.31193           311.21081           432.39457           600.92833           737.13109           470.76545           432.39159           432.39328           432.71261           433.26018           432.44013           432.43924           432.38684           340.95888           283.67537           434.69557           544.30895           346.57857           330.91653           582.11050          2017.08400           432.38726           310.17761           440.86153           441.27521           690.33231           432.46017           434.44620           261.41281           432.45192           279.74470           367.06354           548.87551           338.28774           464.99657           432.49204           453.01573           438.06536           432.40614           432.40817           290.52557           420.55027           451.43904           432.39103           437.20154           432.42060           318.96471           444.56215           432.41147           432.39503           432.39680           597.90008           436.02132           503.87739           432.86125           547.10327           617.51869           598.31624           514.60447           432.42214           667.37433           432.71243           674.67245           574.31643           445.77863           434.66433           432.59752           432.53787           432.38860           432.56730           432.56310           535.30119           589.07496           943.19196           757.16899           172.41449           432.91007           432.41871           432.56717           432.51576           247.94336           432.76969           352.24368           436.14650           432.71559           364.32408           432.42903           203.93216           643.03673           553.06377           558.84177           410.91807           425.38774           755.73987           433.00867           173.73542           432.44642           432.38314           432.38333           452.86728           432.76058           432.39871           433.10691           438.58669           432.84900           521.46650          2503.70074           426.06230           432.43669           434.90454           433.30571           607.50231           434.56028           447.99687           394.78943           432.40934           545.23087           436.75622           433.38413           441.59632           445.66156           432.63022           529.22581           741.94453           432.69224           428.29484           439.90972           435.18814           280.02430           432.40412           431.51116           727.21335           432.61982           434.99342           432.69704           434.95369           436.01567           423.42780           432.96259           555.15327           434.35062           433.69419           855.45307         41815.21510           432.79910           178.15562           435.43258           686.84744           363.26058           935.18256           641.70415           610.22877           401.14918           433.47733           477.29899           432.42658           432.47546           230.98222           432.80841           299.89882           513.29382           368.01124           433.11923           456.33305           432.44512           506.77135           463.75837           432.48008           283.91378           300.17119           497.19319           433.61857           438.66041           375.76945           433.05301           746.69645           481.95561           456.06391           430.23223           434.16164           275.91331           432.57019           321.90512           442.26824           437.30559           432.27692           556.39976           432.42945           438.58398           432.93934           432.50058           303.22754           432.45671           367.94259           336.79607           470.72381           645.89806           432.41557           433.29998           708.51748           441.49346           432.48081           399.59075           435.21886           297.31993           432.83687           388.43636           289.39529           432.45564           777.67293           432.45630           191.20012           601.58592           437.11204           432.59568           431.27923           299.62456           433.42812           432.89912           277.99190           432.54190           322.82327           443.44219           616.83796           432.40291           432.46718           433.42622           792.54250           441.44600           684.51912           472.72893           379.90733           433.20823           463.42917           360.20638           449.34395           433.00820           660.71570           433.50714           443.11405           747.19915           326.32039           494.52021           432.40128           432.43629           432.63337           437.60319           467.91305           435.00971           702.83141           436.75793           432.99176           432.42688           345.41058           334.84747           432.39959           434.66290           818.90118           432.38472           437.82353           433.93179           432.47026           432.40910           434.36739           437.95516           663.77484           369.79839           433.84868           459.68816           280.65059           300.86346           476.23469           432.61969           426.96078           595.29315           433.01254           543.14749           432.41341           523.58173           432.47022           433.18120          1028.96083           432.40330           532.47790           423.68216           432.44283           272.26216           432.72736           432.54221           573.57528           432.74051           433.13583           433.21396           437.04087           484.90721           759.04131           432.52428           572.13123           436.62214          1127.90946          1134.01146          1058.70274           479.34578           655.08944           438.32631           432.41078           432.85313           544.76038           432.65266           495.00634           433.54782           432.49618           433.92592           502.50184           428.45828           432.60171           432.44722           353.72761           433.03554           901.19048           436.29159           432.65219           432.50160           432.66206           432.96749           434.72869           432.42596           496.74877           644.09414           432.49976           432.40518           602.90372           432.65626           700.12196           466.15308           432.40490           432.38386           430.94205           432.64099           215.35101           367.49687           432.51936           439.58089           433.20591           586.62266           429.34769           433.40635           432.91598           435.29678           463.54960           432.39342           455.53044           433.20906           777.10550           431.96945           612.25225           246.39069           226.75422           238.59530           245.83787           432.38820           583.22361           386.74965           585.78967           432.38687           282.92739  