# vtk DataFile Version 3.0
Output from R2
ASCII
DATASET UNSTRUCTURED_GRID
POINTS       2188 double
    -5.00000     0.00000   0.
     0.00000     0.00000   0.
     1.00000     0.05000   0.
     2.00000     0.10000   0.
     3.00000     0.12000   0.
     4.00000     0.14000   0.
     5.00000     0.18000   0.
     6.00000     0.22000   0.
     7.00000     0.20000   0.
     8.00000     0.18000   0.
     9.00000     0.11000   0.
    10.00000     0.05000   0.
    11.00000     0.02000   0.
    12.00000    -0.01000   0.
    13.00000    -0.06000   0.
    14.00000    -0.11000   0.
    15.00000    -0.15000   0.
    16.00000    -0.19000   0.
    17.00000    -0.15000   0.
    18.00000    -0.11000   0.
    19.00000    -0.05000   0.
    20.00000     0.00000   0.
    21.00000    -0.07000   0.
    22.00000    -0.13000   0.
    23.00000    -0.08000   0.
    24.00000    -0.03000   0.
    25.00000     0.03000   0.
    26.00000     0.09000   0.
    27.00000     0.09000   0.
    28.00000     0.09000   0.
    29.00000     0.12000   0.
    30.00000     0.15000   0.
    31.00000     0.16000   0.
    32.00000     0.16000   0.
    33.00000     0.21000   0.
    34.00000     0.26000   0.
    35.00000     0.24000   0.
    36.00000     0.22000   0.
    37.00000     0.35000   0.
    37.99000     0.48000   0.
    38.99000     0.48000   0.
    39.99000     0.48000   0.
    40.99000     0.55000   0.
    41.99000     0.62000   0.
    42.98000     0.73000   0.
    43.98000     0.78000   0.
    44.98000     0.83000   0.
    45.98000     0.88000   0.
    46.98000     0.93000   0.
    47.98000     0.98000   0.
    48.98000     0.94000   0.
    49.98000     0.90000   0.
    50.98000     0.86000   0.
    51.98000     0.82000   0.
    52.98000     0.88000   0.
    53.98000     0.93000   0.
    54.98000     0.89000   0.
    55.98000     0.85000   0.
    56.98000     0.80000   0.
    57.98000     0.75000   0.
    58.98000     0.78000   0.
    59.98000     0.80000   0.
    60.98000     0.80000   0.
    61.98000     0.80000   0.
    62.99000     0.81000   0.
    63.99000     0.82000   0.
    64.99000     0.81000   0.
    65.99000     0.81000   0.
    66.99000     0.83000   0.
    67.99000     0.85000   0.
    68.99000     0.87000   0.
    69.99000     0.90000   0.
    70.99000     1.00000   0.
    71.98000     1.10000   0.
    72.98000     1.20000   0.
    73.98000     1.29000   0.
    74.98000     1.34000   0.
    75.97000     1.40000   0.
    76.97000     1.46000   0.
    77.97000     1.51000   0.
    78.97000     1.41000   0.
    79.97000     1.32000   0.
    80.97000     1.37000   0.
    81.97000     1.42000   0.
    82.97000     1.37000   0.
    83.97000     1.32000   0.
    84.97000     1.35000   0.
    85.97000     1.37000   0.
    86.97000     1.40000   0.
    87.97000     1.42000   0.
    88.97000     1.39000   0.
    89.97000     1.37000   0.
    90.97000     1.42000   0.
    91.97000     1.47000   0.
    92.97000     1.48000   0.
    93.97000     1.49000   0.
    94.97000     1.50000   0.
    95.98000     1.50000   0.
    96.98000     1.52000   0.
    97.98000     1.54000   0.
    98.98000     1.54000   0.
    99.98000     1.54000   0.
   100.98000     1.58000   0.
   101.98000     1.61000   0.
   102.98000     1.60000   0.
   103.98000     1.59000   0.
   104.98000     1.62000   0.
   105.98000     1.64000   0.
   106.98000     1.68000   0.
   107.98000     1.71000   0.
   108.98000     1.73000   0.
   109.99000     1.76000   0.
   110.99000     1.81000   0.
   111.99000     1.85000   0.
   112.99000     1.84000   0.
   113.99000     1.83000   0.
   114.99000     1.84000   0.
   115.99000     1.85000   0.
   116.99000     1.86000   0.
   117.99000     1.86000   0.
   118.99000     1.83000   0.
   119.99000     1.81000   0.
   120.99000     1.86000   0.
   121.99000     1.91000   0.
   122.99000     1.96000   0.
   123.99000     2.03000   0.
   124.99000     2.14000   0.
   125.98000     2.25000   0.
   126.98000     2.34000   0.
   131.98000     2.34000   0.
    -5.00000    -5.00000   0.
    -1.74000    -5.00000   0.
     1.52000    -4.92000   0.
     4.78000    -4.83000   0.
     8.05000    -4.82000   0.
    11.31000    -4.99000   0.
    14.57000    -5.13000   0.
    17.83000    -5.12000   0.
    21.09000    -5.07000   0.
    24.35000    -5.01000   0.
    27.61000    -4.91000   0.
    30.88000    -4.85000   0.
    34.14000    -4.74000   0.
    37.40000    -4.59000   0.
    40.66000    -4.47000   0.
    43.92000    -4.22000   0.
    47.18000    -4.06000   0.
    50.44000    -4.12000   0.
    53.70000    -4.09000   0.
    56.97000    -4.20000   0.
    60.23000    -4.20000   0.
    63.49000    -4.18000   0.
    66.75000    -4.17000   0.
    70.01000    -4.10000   0.
    73.27000    -3.77000   0.
    76.53000    -3.57000   0.
    79.79000    -3.66000   0.
    83.06000    -3.64000   0.
    86.32000    -3.62000   0.
    89.58000    -3.62000   0.
    92.84000    -3.52000   0.
    96.10000    -3.50000   0.
    99.36000    -3.46000   0.
   102.62000    -3.40000   0.
   105.89000    -3.36000   0.
   109.15000    -3.26000   0.
   112.41000    -3.16000   0.
   115.67000    -3.15000   0.
   118.93000    -3.17000   0.
   122.19000    -3.08000   0.
   125.45000    -2.81000   0.
   128.71000    -2.66000   0.
   131.98000    -2.66000   0.
  -639.88000     0.00000   0.
  -639.88000  -385.93000   0.
   766.86000     2.34000   0.
   766.86000  -385.93000   0.
    -3.07439     0.00000   0.
    -1.69523     0.00000   0.
    -0.70746     0.00000   0.
     0.50000     0.02500   0.
     1.50000     0.07500   0.
     2.50000     0.11000   0.
     3.50000     0.13000   0.
     4.50000     0.16000   0.
     5.50000     0.20000   0.
     6.50000     0.21000   0.
     7.50000     0.19000   0.
     8.50000     0.14500   0.
     9.50000     0.08000   0.
    10.50000     0.03500   0.
    11.50000     0.00500   0.
    12.50000    -0.03500   0.
    13.50000    -0.08500   0.
    14.50000    -0.13000   0.
    15.50000    -0.17000   0.
    16.50000    -0.17000   0.
    17.50000    -0.13000   0.
    18.50000    -0.08000   0.
    19.50000    -0.02500   0.
    20.50000    -0.03500   0.
    21.50000    -0.10000   0.
    22.50000    -0.10500   0.
    23.50000    -0.05500   0.
    24.50000     0.00000   0.
    25.50000     0.06000   0.
    26.50000     0.09000   0.
    27.50000     0.09000   0.
    28.50000     0.10500   0.
    29.50000     0.13500   0.
    30.50000     0.15500   0.
    31.50000     0.16000   0.
    32.50000     0.18500   0.
    33.50000     0.23500   0.
    34.50000     0.25000   0.
    35.50000     0.23000   0.
    36.50000     0.28500   0.
    37.49500     0.41500   0.
    38.49000     0.48000   0.
    39.49000     0.48000   0.
    40.49000     0.51500   0.
    41.49000     0.58500   0.
    42.48500     0.67500   0.
    43.48000     0.75500   0.
    44.48000     0.80500   0.
    45.48000     0.85500   0.
    46.48000     0.90500   0.
    47.48000     0.95500   0.
    48.48000     0.96000   0.
    49.48000     0.92000   0.
    50.48000     0.88000   0.
    51.48000     0.84000   0.
    52.48000     0.85000   0.
    53.48000     0.90500   0.
    54.48000     0.91000   0.
    55.48000     0.87000   0.
    56.48000     0.82500   0.
    57.48000     0.77500   0.
    58.48000     0.76500   0.
    59.48000     0.79000   0.
    60.48000     0.80000   0.
    61.48000     0.80000   0.
    62.48500     0.80500   0.
    63.49000     0.81500   0.
    64.49000     0.81500   0.
    65.49000     0.81000   0.
    66.49000     0.82000   0.
    67.49000     0.84000   0.
    68.49000     0.86000   0.
    69.49000     0.88500   0.
    70.49000     0.95000   0.
    71.48500     1.05000   0.
    72.48000     1.15000   0.
    73.48000     1.24500   0.
    74.48000     1.31500   0.
    75.47500     1.37000   0.
    76.47000     1.43000   0.
    77.47000     1.48500   0.
    78.47000     1.46000   0.
    79.47000     1.36500   0.
    80.47000     1.34500   0.
    81.47000     1.39500   0.
    82.47000     1.39500   0.
    83.47000     1.34500   0.
    84.47000     1.33500   0.
    85.47000     1.36000   0.
    86.47000     1.38500   0.
    87.47000     1.41000   0.
    88.47000     1.40500   0.
    89.47000     1.38000   0.
    90.47000     1.39500   0.
    91.47000     1.44500   0.
    92.47000     1.47500   0.
    93.47000     1.48500   0.
    94.47000     1.49500   0.
    95.47500     1.50000   0.
    96.48000     1.51000   0.
    97.48000     1.53000   0.
    98.48000     1.54000   0.
    99.48000     1.54000   0.
   100.48000     1.56000   0.
   101.48000     1.59500   0.
   102.48000     1.60500   0.
   103.48000     1.59500   0.
   104.48000     1.60500   0.
   105.48000     1.63000   0.
   106.48000     1.66000   0.
   107.48000     1.69500   0.
   108.48000     1.72000   0.
   109.48500     1.74500   0.
   110.49000     1.78500   0.
   111.49000     1.83000   0.
   112.49000     1.84500   0.
   113.49000     1.83500   0.
   114.49000     1.83500   0.
   115.49000     1.84500   0.
   116.49000     1.85500   0.
   117.49000     1.86000   0.
   118.49000     1.84500   0.
   119.49000     1.82000   0.
   120.49000     1.83500   0.
   121.49000     1.88500   0.
   122.49000     1.93500   0.
   123.49000     1.99500   0.
   124.49000     2.08500   0.
   125.48500     2.19500   0.
   126.48000     2.29500   0.
   127.68746     2.34000   0.
   128.67523     2.34000   0.
   130.05439     2.34000   0.
    -3.37000    -5.00000   0.
    -0.11000    -4.96000   0.
     3.15000    -4.87500   0.
     6.41500    -4.82500   0.
     9.68000    -4.90500   0.
    12.94000    -5.06000   0.
    16.20000    -5.12500   0.
    19.46000    -5.09500   0.
    22.72000    -5.04000   0.
    25.98000    -4.96000   0.
    29.24500    -4.88000   0.
    32.51000    -4.79500   0.
    35.77000    -4.66500   0.
    39.03000    -4.53000   0.
    42.29000    -4.34500   0.
    45.55000    -4.14000   0.
    48.81000    -4.09000   0.
    52.07000    -4.10500   0.
    55.33500    -4.14500   0.
    58.60000    -4.20000   0.
[...]
POINT_DATA      2188
CELL_DATA      4025
SCALARS Resistivity(ohm.m) double 1
LOOKUP_TABLE default
           431.98812           408.75921           439.19170           433.15485           433.75561           183.71335           432.99603           433.21429           433.39421           431.41747           376.63552           649.18472           433.12081           433.23650           437.21478           466.47180           434.16587           432.39934           371.19803           436.82180           432.73657           943.44418           433.97111           422.40745           432.77490           314.63648           453.72315           282.70599           467.19006           199.93198           194.49406           436.09990           434.47929           432.74624           358.65728           693.39216           638.71565           622.77931           218.40360           432.68911           411.66588           569.06919          7112.69585          1024.98780           432.62333           433.08778           467.47228           363.17086           436.91110           378.66989           433.38833           434.61844           222.74604           258.14059           218.36163           581.49728           431.70914           715.10705           365.74131           775.21734           433.11457           432.41492           358.98826           682.10904           433.24100          2423.09629           299.74300           436.36057           624.54121           432.40152           459.78645           910.64228           447.47990           372.17059           547.39806           422.71982           407.98189           223.29233           907.77715           450.34900           780.50307           929.90492           432.40127           293.41061           924.81669           432.45494           216.61320           433.23230           189.45552           316.05586           461.07544           433.58002           433.29117           432.60650           236.89639           450.44004           432.86780           938.17938           433.01671           411.35423           433.71582           441.13091           466.24202           476.35804           859.81921           775.14497           433.45748           433.84266           436.64030           437.65394           384.58037           435.82346           432.61138           455.55874           433.11871           749.56204          2814.06341           433.40581           432.86673           645.11875           363.22889           435.51855           434.66571           218.16137           239.76675           439.32481           792.83858           939.73212           626.46828           432.88013           615.06632           467.11259           444.85669           431.07027           234.19303           433.50867           437.35096           435.50852           444.00683           440.19883           874.70834           183.17305           303.20397           270.17831           196.04807           432.43960           267.01447           534.05780           225.68441           434.87976           562.01959           983.23965           440.09579           442.73964           433.93135           499.36047           435.32242           443.90487          1285.53345           446.75876           491.44877           583.80085           432.83004           822.86301           846.14181           224.39782           434.41170           433.25541           432.68909           626.61210           821.79611           432.60296           432.44655          1165.02448           357.35687           375.16015           398.86689           409.57202           434.19136           432.76002           449.54509           433.20541           280.17899           712.64757           407.35671          1116.40713           722.37133           370.54806           713.05269          1180.87014           416.62097           615.51590           432.94125           453.91086           391.86459           457.49581           432.38782           432.61969           643.14763           433.54497           470.26939           183.39530           505.24216           439.71708          1307.04869           449.55511           169.08712           753.89592           438.26380           438.09430           456.98445           617.50000           580.85893           432.43070           432.69569           265.55675           441.41141           571.20000           614.69403           434.45237           479.83728           432.53965           370.98405           855.18673          1191.67061           435.43562           245.48121          1374.13407           453.62810           445.27628           437.53775           560.72774           432.93146           861.76915           449.51084           436.71225           619.08863           432.52975           432.39791           607.90256           432.66094           434.16802           466.55746           440.17682           304.37132           432.83442           460.96431           433.97676           435.90386           432.52217           403.70098           446.42093           367.60924           613.11652           678.39588           353.20593           432.93141          3160.65242           748.42645           437.34524           318.31284           559.39096           436.13541           432.43221           590.31138           432.49956           597.17642           435.91919           437.83009           457.61738           419.04596           488.54090           435.05463           604.99290           433.20886           460.80020           435.72597           545.85071           438.25429           434.12213           788.28744           433.36780           506.67206         11601.24809           444.13074           440.95217           593.52910           432.62274           432.63272           433.42362           377.66140           428.74347           780.98908           432.44399           487.10511           468.10999           474.91615           450.83218           478.95855           298.79963           311.95548          1225.40928           435.84883           560.87787           365.02844           432.43105           568.20211           472.73476           389.26055           435.20119           958.91013           486.74702           432.55142           562.13918           456.58452           427.08676           477.28403           237.92290           434.98981           773.32439           220.61037           432.44232           432.53183           415.82104           433.62525           436.32939           256.59969           432.98238           450.78334           433.08093           272.83626           694.21693           240.72794           884.99802           191.26172           432.97643           441.88079           432.44767           432.67326           432.56949           927.10455           432.41646           432.46463           434.39251           888.31667           432.42980           335.48749           178.89479           405.73614           433.15848           247.52309           441.17496           432.52318           451.26532           436.33534           433.00935           432.49027           432.49555           771.02710           439.15536           223.11926           443.10798           457.96745           433.12607           496.68883           581.36775           434.76784           368.65092           433.50439           470.78832           894.06708           560.89330           344.71230           595.01780           976.79533           231.95560           433.09357           292.45528           392.45303           779.45991           596.41989           432.65622           439.66658           458.46676           432.95124           296.41239           833.12431           432.83588           444.08566         10171.29664           717.51211           301.55117           433.30837           755.04369           411.46532           432.38703           425.28258           445.36593           575.92143           432.83475           379.63490           445.11625           176.99985           281.70620           606.66086           601.29566           432.96025           272.91535           432.92396           432.93470           443.99906           432.91311           164.64171           433.33836           262.66682           432.42811           616.84778           517.71722           437.99525           518.68611           434.21954           433.29815           585.30279           257.65533           433.69263           440.59565           607.24798           463.44546           421.28571           676.63323           432.44705           407.79308           465.74137           458.20863           433.37852           653.93152           433.32032          1145.99392           271.01376           526.92394           451.88508           433.32621           416.51685           443.66626           434.07793           446.07587           447.01907           419.49349           412.15922           434.60817           438.38121           231.04525           204.60634           433.21348           437.47240           432.67135           211.49372           915.69418           433.67317           608.77564           518.65675           589.19799           432.94549           546.33538           596.37662           180.75486           281.81057           433.14790           170.41743           333.62546           444.60038           210.23706           432.53856           345.58273           495.70652           680.31580           440.18233           470.46316           431.04623           434.25278           659.40251           600.44248           226.75282           434.27925           289.96526           519.61712           432.53324           433.48973           564.66857           985.13038           637.35720           432.68256           432.57323           630.84734           367.72959           792.62805           623.21552           750.04920           432.64470           432.40685           433.52616           409.50701           433.75154           668.93708           432.39109           442.65320           433.22382           440.77701           432.45052           432.98765           433.05948           432.38749           432.48599           432.54647           432.38776           299.48437           369.36385           466.19899           192.40217           455.52939           446.09633           385.78882           432.44592           432.42168           448.20626           259.26089           432.40355           432.84679           338.41536           435.08689           432.51246           413.04932          1083.00723           452.89976           432.38004           569.57957           465.16423           434.23059           432.50562           432.47023           292.19183           198.69910           353.46577           264.07060           377.75746           447.85335           435.29575           433.69874           448.53771           221.55445           382.79769           440.03256           510.96883           433.84582           482.54245           432.42111           439.63925           202.42578           846.28634           156.51169           435.00811           434.18942           214.87054           434.91721           350.04568           437.46744           808.36671          1110.93548           419.81782           432.83185           432.46120           214.83039           432.57189           582.50585           224.58074           445.55385           434.02198           323.23037           432.97594           432.60741           512.42209           439.27717           447.89641           432.42711           432.38678           476.24362           476.44834           432.40339           432.42500           432.41425           556.22800           764.04767          1291.16481          1396.54019          1411.67530          1403.82676           434.14120           422.61661           433.50252           432.42897           433.12987           532.09205           432.75095           432.46942           432.84572           405.01688           230.46676           432.32500           432.44456           432.38629           432.37926           450.30822           432.38964           424.78672          1155.15391           432.43166           433.14415           432.98297           433.30415           543.93665           438.34715           237.44192           432.53781           432.41019           432.96833           488.09502          1095.63503           732.21591           432.76632          1009.75206           323.47963           432.41093           696.07198           955.70692           517.66619           432.38684           432.39804           432.75481           433.43258           432.44431           432.46238           432.38656           335.19865           301.23155           435.33775           597.10998           360.05078           280.92211           567.01328          2413.99871           432.39917           326.75772           444.03051           441.16353           863.05686           432.52591           434.60080           277.31113           432.49693           291.89616           397.09811           581.29730           421.30918           464.53461           432.48648           452.37184           440.03550           432.39965           432.40322           246.30306           424.48167           455.41783           432.38840           437.48411           432.42610           259.11900           445.76640           432.40860           432.40769           432.40074           576.69587           437.19068           506.79246           432.94673           561.69868           726.04498           661.51855           517.86438           432.41496           810.64088           432.82582           680.31502           612.67547           445.74868           435.20109           432.63517           432.59379           432.39793           432.58690           432.67805           567.98053           593.65892           903.35553          1003.56089           163.14209           433.49597           432.46944           432.58083           432.54010           240.82266           432.81435           367.67788           436.54940           432.80940           345.86027           432.48752           198.67055           785.11142           564.25944           605.92487           416.65534           428.01036           862.69891           433.24437           167.65563           432.47009           432.38588           432.38637           452.68637           432.82098           432.40714           433.17607           439.79669           436.46962           554.24457          3164.64909           428.76577           432.47586           434.99784           433.43802           706.50071           435.07764           451.68527           402.07743           432.41226           539.37915           444.39159           433.56636           441.54570           403.36030           432.72631           570.61618           955.83156           432.75426           430.13912           442.11480           435.77136           307.33089           432.42272           432.34121           897.37413           432.65436           435.34904           433.06297           435.22760           437.30648           426.54961           433.09413           653.16970           435.02785           434.05566          1087.45108         76590.84638           432.87865           160.80200           436.61122           816.97947           392.23486          1093.01406           643.57878           697.61257           413.42495           433.57039           493.16565           432.42916           432.47690           244.75693           432.89382           331.81592           506.97046           284.87562           433.23019           457.42739           432.48212           538.59161           470.67787           432.56975           322.26398           309.13960           496.93326           433.79176           440.83136           410.23668           433.12416           944.58794           489.65266           460.43236           431.51151           434.42526           287.69155           432.60480           334.56031           444.25599           438.73662           432.80626           558.78378           432.44379           439.17816           433.20792           432.51977           334.78371           432.45181           393.79489           339.50406           468.10316           676.80822           432.42469           433.41315           779.97093           443.79958           432.55846           412.66586           435.49742           308.88492           432.88425           396.34922           262.13252           432.51090           880.52198           432.46967           195.57905           645.97963           438.69813           432.62607           442.74514           228.83587           433.51195           432.95817           208.40425           432.55893           288.59246           443.78128           600.25431           432.41039           432.51344           433.59111           863.86230           444.00372           759.62969           475.42649           393.33111           433.29973           471.10574           372.73611           450.02124           433.16765           715.79474           433.72419           445.92673           881.85838           330.05414           522.98937           432.39098           432.43385           432.75056           439.34998           465.38835           435.97294           723.62321           438.25627           447.82454           432.43723           360.02436           351.47957           432.40906           435.46550           826.61468           432.38629           438.23709           434.39904           432.46576           432.41330           434.51437           439.42027           696.62880           398.23080           434.28359           460.08876           295.13141           273.95056           472.03083           432.62954           429.19104           637.35430           433.14132           586.60207           432.42530           559.95100           432.47778           433.29848          1154.14455           432.40920           532.55591           426.89514           432.47064           277.14842           432.78762           432.60685           633.51804           432.84296           433.32635           433.30945           437.31535           540.19372           733.96384           432.54853           644.90933           439.17516          1341.50449          1471.74645          1455.83784           498.51152           712.84416           440.28418           432.41044           432.96629           567.84933           432.73590           503.81257           433.84765           432.50356           438.39071           539.89668           448.48348           432.62305           432.46025           322.57044           433.10812          1219.34204           436.64049           432.69783           432.54334           432.73668           433.05494           435.39635           432.43955           544.20158           760.97580           432.55541           432.39769           666.56625           432.78123           676.48900           478.62097           432.39771           432.38586           431.99079           432.67845           234.27318           296.66246           432.95870           441.55420           433.58395           588.71242           430.91892           433.52844           432.95536           435.63488           462.02872           432.39797           464.12371           433.43697          1010.20923           432.62787           701.89614           219.78726           171.37329           205.22697           245.61117           432.38699           630.13458           355.13921           609.35702           432.38648           212.95622  