# vtk DataFile Version 3.0
Output from R2
ASCII
DATASET UNSTRUCTURED_GRID
POINTS       2188 double
    -5.00000     0.00000   0.
     0.00000     0.00000   0.
     1.00000     0.05000   0.
     2.00000     0.10000   0.
     3.00000     0.12000   0.
     4.00000     0.14000   0.
     5.00000     0.18000   0.
     6.00000     0.22000   0.
     7.00000     0.20000   0.
     8.00000     0.18000   0.
     9.00000     0.11000   0.
    10.00000     0.05000   0.
    11.00000     0.02000   0.
    12.00000    -0.01000   0.
    13.00000    -0.06000   0.
    14.00000    -0.11000   0.
    15.00000    -0.15000   0.
    16.00000    -0.19000   0.
    17.00000    -0.15000   0.
    18.00000    -0.11000   0.
    19.00000    -0.05000   0.
    20.00000     0.00000   0.
    21.00000    -0.07000   0.
    22.00000    -0.13000   0.
    23.00000    -0.08000   0.
    24.00000    -0.03000   0.
    25.00000     0.03000   0.
    26.00000     0.09000   0.
    27.00000     0.09000   0.
    28.00000     0.09000   0.
    29.00000     0.12000   0.
    30.00000     0.15000   0.
    31.00000     0.16000   0.
    32.00000     0.16000   0.
    33.00000     0.21000   0.
    34.00000     0.26000   0.
    35.00000     0.24000   0.
    36.00000     0.22000   0.
    37.00000     0.35000   0.
    37.99000     0.48000   0.
    38.99000     0.48000   0.
    39.99000     0.48000   0.
    40.99000     0.55000   0.
    41.99000     0.62000   0.
    42.98000     0.73000   0.
    43.98000     0.78000   0.
    44.98000     0.83000   0.
    45.98000     0.88000   0.
    46.98000     0.93000   0.
    47.98000     0.98000   0.
    48.98000     0.94000   0.
    49.98000     0.90000   0.
    50.98000     0.86000   0.
    51.98000     0.82000   0.
    52.98000     0.88000   0.
    53.98000     0.93000   0.
    54.98000     0.89000   0.
    55.98000     0.85000   0.
    56.98000     0.80000   0.
    57.98000     0.75000   0.
    58.98000     0.78000   0.
    59.98000     0.80000   0.
    60.98000     0.80000   0.
    61.98000     0.80000   0.
    62.99000     0.81000   0.
    63.99000     0.82000   0.
    64.99000     0.81000   0.
    65.99000     0.81000   0.
    66.99000     0.83000   0.
    67.99000     0.85000   0.
    68.99000     0.87000   0.
    69.99000     0.90000   0.
    70.99000     1.00000   0.
    71.98000     1.10000   0.
    72.98000     1.20000   0.
    73.98000     1.29000   0.
    74.98000     1.34000   0.
    75.97000     1.40000   0.
    76.97000     1.46000   0.
    77.97000     1.51000   0.
    78.97000     1.41000   0.
    79.97000     1.32000   0.
    80.97000     1.37000   0.
    81.97000     1.42000   0.
    82.97000     1.37000   0.
    83.97000     1.32000   0.
    84.97000     1.35000   0.
    85.97000     1.37000   0.
    86.97000     1.40000   0.
    87.97000     1.42000   0.
    88.97000     1.39000   0.
    89.97000     1.37000   0.
    90.97000     1.42000   0.
    91.97000     1.47000   0.
    92.97000     1.48000   0.
    93.97000     1.49000   0.
    94.97000     1.50000   0.
    95.98000     1.50000   0.
    96.98000     1.52000   0.
    97.98000     1.54000   0.
    98.98000     1.54000   0.
    99.98000     1.54000   0.
   100.98000     1.58000   0.
   101.98000     1.61000   0.
   102.98000     1.60000   0.
   103.98000     1.59000   0.
   104.98000     1.62000   0.
   105.98000     1.64000   0.
   106.98000     1.68000   0.
   107.98000     1.71000   0.
   108.98000     1.73000   0.
   109.99000     1.76000   0.
   110.99000     1.81000   0.
   111.99000     1.85000   0.
   112.99000     1.84000   0.
   113.99000     1.83000   0.
   114.99000     1.84000   0.
   115.99000     1.85000   0.
   116.99000     1.86000   0.
   117.99000     1.86000   0.
   118.99000     1.83000   0.
   119.99000     1.81000   0.
   120.99000     1.86000   0.
   121.99000     1.91000   0.
   122.99000     1.96000   0.
   123.99000     2.03000   0.
   124.99000     2.14000   0.
   125.98000     2.25000   0.
   126.98000     2.34000   0.
   131.98000     2.34000   0.
    -5.00000    -5.00000   0.
    -1.74000    -5.00000   0.
     1.52000    -4.92000   0.
     4.78000    -4.83000   0.
     8.05000    -4.82000   0.
    11.31000    -4.99000   0.
    14.57000    -5.13000   0.
    17.83000    -5.12000   0.
    21.09000    -5.07000   0.
    24.35000    -5.01000   0.
    27.61000    -4.91000   0.
    30.88000    -4.85000   0.
    34.14000    -4.74000   0.
    37.40000    -4.59000   0.
    40.66000    -4.47000   0.
    43.92000    -4.22000   0.
    47.18000    -4.06000   0.
    50.44000    -4.12000   0.
    53.70000    -4.09000   0.
    56.97000    -4.20000   0.
    60.23000    -4.20000   0.
    63.49000    -4.18000   0.
    66.75000    -4.17000   0.
    70.01000    -4.10000   0.
    73.27000    -3.77000   0.
    76.53000    -3.57000   0.
    79.79000    -3.66000   0.
    83.06000    -3.64000   0.
    86.32000    -3.62000   0.
    89.58000    -3.62000   0.
    92.84000    -3.52000   0.
    96.10000    -3.50000   0.
    99.36000    -3.46000   0.
   102.62000    -3.40000   0.
   105.89000    -3.36000   0.
   109.15000    -3.26000   0.
   112.41000    -3.16000   0.
   115.67000    -3.15000   0.
   118.93000    -3.17000   0.
   122.19000    -3.08000   0.
   125.45000    -2.81000   0.
   128.71000    -2.66000   0.
   131.98000    -2.66000   0.
  -639.88000     0.00000   0.
  -639.88000  -385.93000   0.
   766.86000     2.34000   0.
   766.86000  -385.93000   0.
    -3.07439     0.00000   0.
    -1.69523     0.00000   0.
    -0.70746     0.00000   0.
     0.50000     0.02500   0.
     1.50000     0.07500   0.
     2.50000     0.11000   0.
     3.50000     0.13000   0.
     4.50000     0.16000   0.
     5.50000     0.20000   0.
     6.50000     0.21000   0.
     7.50000     0.19000   0.
     8.50000     0.14500   0.
     9.50000     0.08000   0.
    10.50000     0.03500   0.
    11.50000     0.00500   0.
    12.50000    -0.03500   0.
    13.50000    -0.08500   0.
    14.50000    -0.13000   0.
    15.50000    -0.17000   0.
    16.50000    -0.17000   0.
    17.50000    -0.13000   0.
    18.50000    -0.08000   0.
    19.50000    -0.02500   0.
    20.50000    -0.03500   0.
    21.50000    -0.10000   0.
    22.50000    -0.10500   0.
    23.50000    -0.05500   0.
    24.50000     0.00000   0.
    25.50000     0.06000   0.
    26.50000     0.09000   0.
    27.50000     0.09000   0.
    28.50000     0.10500   0.
    29.50000     0.13500   0.
    30.50000     0.15500   0.
    31.50000     0.16000   0.
    32.50000     0.18500   0.
    33.50000     0.23500   0.
    34.50000     0.25000   0.
    35.50000     0.23000   0.
    36.50000     0.28500   0.
    37.49500     0.41500   0.
    38.49000     0.48000   0.
    39.49000     0.48000   0.
    40.49000     0.51500   0.
    41.49000     0.58500   0.
    42.48500     0.67500   0.
    43.48000     0.75500   0.
    44.48000     0.80500   0.
    45.48000     0.85500   0.
    46.48000     0.90500   0.
    47.48000     0.95500   0.
    48.48000     0.96000   0.
    49.48000     0.92000   0.
    50.48000     0.88000   0.
    51.48000     0.84000   0.
    52.48000     0.85000   0.
    53.48000     0.90500   0.
    54.48000     0.91000   0.
    55.48000     0.87000   0.
    56.48000     0.82500   0.
    57.48000     0.77500   0.
    58.48000     0.76500   0.
    59.48000     0.79000   0.
    60.48000     0.80000   0.
    61.48000     0.80000   0.
    62.48500     0.80500   0.
    63.49000     0.81500   0.
    64.49000     0.81500   0.
    65.49000     0.81000   0.
    66.49000     0.82000   0.
    67.49000     0.84000   0.
    68.49000     0.86000   0.
    69.49000     0.88500   0.
    70.49000     0.95000   0.
    71.48500     1.05000   0.
    72.48000     1.15000   0.
    73.48000     1.24500   0.
    74.48000     1.31500   0.
    75.47500     1.37000   0.
    76.47000     1.43000   0.
    77.47000     1.48500   0.
    78.47000     1.46000   0.
    79.47000     1.36500   0.
    80.47000     1.34500   0.
    81.47000     1.39500   0.
    82.47000     1.39500   0.
    83.47000     1.34500   0.
    84.47000     1.33500   0.
    85.47000     1.36000   0.
    86.47000     1.38500   0.
    87.47000     1.41000   0.
    88.47000     1.40500   0.
    89.47000     1.38000   0.
    90.47000     1.39500   0.
    91.47000     1.44500   0.
    92.47000     1.47500   0.
    93.47000     1.48500   0.
    94.47000     1.49500   0.
    95.47500     1.50000   0.
    96.48000     1.51000   0.
    97.48000     1.53000   0.
    98.48000     1.54000   0.
    99.48000     1.54000   0.
   100.48000     1.56000   0.
   101.48000     1.59500   0.
   102.48000     1.60500   0.
   103.48000     1.59500   0.
   104.48000     1.60500   0.
   105.48000     1.63000   0.
   106.48000     1.66000   0.
   107.48000     1.69500   0.
   108.48000     1.72000   0.
   109.48500     1.74500   0.
   110.49000     1.78500   0.
   111.49000     1.83000   0.
   112.49000     1.84500   0.
   113.49000     1.83500   0.
   114.49000     1.83500   0.
   115.49000     1.84500   0.
   116.49000     1.85500   0.
   117.49000     1.86000   0.
   118.49000     1.84500   0.
   119.49000     1.82000   0.
   120.49000     1.83500   0.
   121.49000     1.88500   0.
   122.49000     1.93500   0.
   123.49000     1.99500   0.
   124.49000     2.08500   0.
   125.48500     2.19500   0.
   126.48000     2.29500   0.
   127.68746     2.34000   0.
   128.67523     2.34000   0.
   130.05439     2.34000   0.
    -3.37000    -5.00000   0.
    -0.11000    -4.96000   0.
     3.15000    -4.87500   0.
     6.41500    -4.82500   0.
     9.68000    -4.90500   0.
    12.94000    -5.06000   0.
    16.20000    -5.12500   0.
    19.46000    -5.09500   0.
    22.72000    -5.04000   0.
    25.98000    -4.96000   0.
    29.24500    -4.88000   0.
    32.51000    -4.79500   0.
    35.77000    -4.66500   0.
    39.03000    -4.53000   0.
    42.29000    -4.34500   0.
    45.55000    -4.14000   0.
    48.81000    -4.09000   0.
    52.07000    -4.10500   0.
    55.33500    -4.14500   0.
    58.60000    -4.20000   0.
[...]
POINT_DATA      2188
CELL_DATA      4025
SCALARS Resistivity(ohm.m) double 1
LOOKUP_TABLE default
           431.15091           477.56448           435.49560           432.71394           432.93783           268.46552           432.67584           432.76382           432.79732           430.53899           379.29958           532.95141           432.69562           432.69618           434.29974           449.08456           433.11137           432.38029           373.86822           433.84930           432.52923           726.83838           430.41993           421.07179           432.54788           384.59520           442.01777           281.10471           448.74696           196.28734           279.99474           434.08949           433.29163           432.55152           352.50608           609.99412           527.30483           524.12552           212.86762           432.50931           410.87138           502.27079          2286.83233           809.54589           432.47329           432.69569           449.08246           354.50251           434.45706           377.83886           432.75947           430.40175           293.65034           322.68753           286.07788           501.18398           430.12337           622.27861           366.28855           561.18942           432.73204           432.38826           401.72443           443.99517           432.73616          1156.51182           358.71493           434.14933           516.79018           432.38330           446.06465           649.95099           410.77318           370.66648           369.58619           422.61743           486.16680           295.67681           622.06136           440.64140           508.85212           799.01116           432.38325           285.39867           757.34261           432.40192           218.87095           432.52121           186.82411           328.07407           427.90536           432.87327           432.75786           432.47631           226.09780           440.39359           432.63410           600.97004           432.69145           430.53537           432.92881           435.92457           448.05250           453.03358           672.46649           668.54593           432.79714           432.95902           434.33235           434.01697           386.19577           433.93657           432.46288           420.56729           432.72249           578.49587          1577.59603           432.64340           432.58403           508.78190           416.23274           433.82092           433.41967           250.05859           232.61966           435.61818           667.88180           707.91822           525.69341           432.62934           515.75197           484.90058           438.10911           430.12284           221.62917           432.81979           434.53162           433.74690           437.67541           435.94866           701.16501           186.06174           281.34239           274.85130           205.62796           432.39526           376.22498           483.06670           232.03772           433.49483           495.68590           679.00577           435.70951           436.60179           432.97012           459.09217           433.70504           464.53085           888.04334           439.18020           451.22476           506.11635           432.56967           612.91944           628.72116           270.26828           433.25588           432.76642           432.53337           531.37595           659.92043           432.46750           432.40040           899.98823           301.76817           372.60694           363.94292           423.44113           433.11732           432.57168           440.01173           432.74006           258.82273           665.02875           409.27830           748.01475           576.58311           386.27874           657.65103           814.97675           375.14183           526.77375           432.65658           443.30702           445.12212           443.66356           432.37858           432.47221           502.14392           432.83478           473.60041           245.97175           476.01962           435.55145           973.68310           466.18012           197.40465           662.45609           435.03757           434.93212           444.62523           518.40655           638.12931           432.39118           432.50482           252.42143           436.74500           497.62961           605.84679           433.29516           454.23378           432.44559           375.03825           725.20447           894.85024           433.55527           341.55758           941.90773           442.99974           437.40068           434.76782           511.71536           432.59470           597.66373           439.87143           434.34504           536.53264           432.43029           432.37858           516.56262           432.52026           433.11175           448.29757           435.79490           359.08294           432.56777           446.05849           433.06513           433.98038           432.44436           387.74035           439.07094           364.69082           520.68123           631.08828           414.95747           432.60419          1222.76562           598.92359           434.61534           313.33387           494.84453           433.84049           432.39168           504.56051           432.41820           514.93469           434.03328           434.90391           444.64139           392.25312           454.89928           433.64543           518.89258           432.70388           443.64276           433.96621           485.92834           434.86841           433.05864           620.03760           432.78503           463.75482          3868.52674           437.83944           436.46625           511.13958           432.48082           432.53001           432.75077           378.44466           427.13789           588.87432           432.39828           457.69663           449.52535           437.28255           440.51550           446.86603           304.17862           319.93547           951.67114           434.00355           503.50148           454.94951           432.38908           599.40367           450.26620           390.55236           433.54730           697.51444           455.89246           432.44095           494.44013           441.07479           425.36733           454.06561           237.49117           433.46253           683.37524           281.40241           432.38966           432.43812           384.86814           432.88453           434.17464           239.70821           432.60637           441.49070           432.71342           256.15192           555.05086           263.05310           628.90019           190.57975           432.69799           436.55015           432.40056           432.52612           432.48003           626.21442           432.38888           432.40610           433.25417           601.12023           432.39372           487.82049           197.89933           308.50568           432.73039           287.35044           436.43799           432.44254           439.26254           434.16629           432.63225           432.41966           432.41700           541.83271           435.30497           283.45301           433.41392           443.89315           432.70078           455.95685           535.41510           433.30498           430.26037           432.80527           450.78989           629.36700           377.74391           343.20298           510.23810           837.82775           231.30051           431.76507           296.28116           424.42104           603.80128           510.64305           432.52189           441.01603           444.74603           432.63534           307.39207           737.26792           431.23816           437.93426          3120.79042           569.73524           296.68741           432.75934           633.69860           441.24861           432.37744           383.65660           438.85504           482.93260           432.56633           381.32772           438.12641           189.99741           271.11275           508.69738           507.38676           432.66295           255.92904           432.58972           432.65075           436.70891           432.66101           193.27481           432.66183           269.43122           432.39193           522.38557           390.64766           433.33427           473.96901           433.15428           432.76933           511.36612           239.99362           432.94042           436.12916           512.34244           447.17467           414.44641           643.98058           432.39280           409.95104           446.80119           444.45840           432.75024           542.24442           432.69826           935.24873           323.82129           478.20662           470.48575           432.81091           417.95873           437.29168           433.05903           438.42742           439.31467           418.30967           413.90999           433.39078           435.03143           335.90928           208.80186           432.64695           434.71207           432.52346           266.35066           643.92299           432.91627           511.68247           484.60845           513.67026           432.61047           483.09384           492.67865           194.48098           347.43250           432.70829           228.08878           358.67374           477.81273           202.04970           432.47097           360.07863           460.29527           556.90564           434.68470           539.33186           429.26424           433.14641           544.35650           678.14483           216.60132           433.12249           254.54759           474.58738           431.72889           432.24931           556.95288           592.37780           507.30755           432.54877           432.44671           484.54471           368.38612           700.24680           607.02986           568.65612           432.48409           432.38993           432.83783           392.11560           432.95707           552.80601           432.38259           419.73730           432.67329           436.14396           432.41118           432.69176           432.66966           432.37841           432.41678           432.44241           432.37823           309.73470           359.35868           438.17842           239.29911           442.38675           436.10039           388.02780           432.40052           432.39556           438.59327           286.20140           432.38523           432.56076           344.09174           433.59891           432.42646           414.99895           798.48016           441.79296           432.38027           607.81980           447.55314           433.16257           432.43542           432.40611           363.12423           208.35254           454.35920           330.52112           430.43339           439.22886           433.70406           432.86060           440.33392           223.82043           505.59204           435.74866           567.41645           432.94830           554.15289           432.39505           435.77541           209.65598           541.81573           184.75807           431.85613           432.97835           230.19751           433.21905           355.88062           434.73113           619.31732           854.74195           420.86427           432.60127           432.40937           213.99811           432.50003           613.08398           282.63099           438.33182           432.99318           320.81974           432.66062           432.48515           469.13367           434.77414           439.49676           432.38873           432.37694           450.41135           451.44712           432.38494           432.38719           432.38702           570.66185           583.65563           923.91959           898.00640           935.36065           962.01407           433.07242           423.29913           432.81614           432.39232           432.39374           532.59905           432.53657           432.40841           432.56978           436.60141           229.95354           425.94626           432.40385           432.37627           432.37968           438.60800           432.38010           425.13988           756.00552           432.39551           432.66430           432.66694           432.79196           481.42614           435.07338           267.18765           432.43257           432.38142           432.61301           455.41250          1018.05770           565.65162           432.53173           690.26077           331.53399           432.38273           510.69898           693.26857           478.48132           432.37767           432.37862           432.52945           432.76671           432.40069           432.41424           432.37707           381.13268           288.75299           433.69446           521.85823           366.96274           369.13109           495.65013          1534.82166           432.38002           326.38856           437.86336           436.11757           658.88757           432.44567           433.29960           262.20230           432.43369           289.45362           373.67491           506.20334           370.17873           446.08044           432.41372           440.91550           435.90230           432.38404           432.38455           310.60447           424.78299           442.48047           432.37906           434.63142           432.39681           361.96558           438.47865           432.38668           432.37962           432.38213           591.99102           434.48123           460.92292           432.59164           490.74513           585.86623           643.90342           474.13369           432.38901           643.19555           432.61214           548.55796           520.77034           438.16124           433.17335           432.48091           432.48045           432.37916           432.45968           432.52977           500.21329           512.31392           930.64445           696.18137           188.49725           432.42369           432.39711           432.46308           432.43703           270.53715           432.55793           366.01635           434.23228           432.59352           377.73317           432.41027           224.84085           606.37551           496.74395           580.67484           418.23758           427.83210           744.44022           432.63290           190.14325           432.42285           432.37625           432.37621           440.99031           432.55312           432.37868           432.71191           435.63525           430.32141           493.63005          1549.48548           427.70748           432.41527           433.41606           432.77763           558.31585           433.57647           441.04198           404.20028           432.38549           484.17286           460.61550           432.83525           436.29228           454.74740           432.56276           588.04425           672.00068           432.52793           429.65939           436.97635           433.33945           288.10947           432.38495           431.63610           663.86445           432.48291           433.61805           432.41175           433.57684           434.62019           426.57982           432.63090           552.37077           433.61693           433.06988           857.77217         20476.73573           432.57505           203.11805           434.31310           660.83074           339.57634           845.05910           528.89236           666.60943           395.62492           432.89280           460.92330           432.39463           432.41605           240.76288           432.61830           310.33159           535.81601           327.48135           432.70681           443.45263           432.42310           484.61830           449.55923           432.46566           268.74601           313.46332           462.52195           432.95698           436.25882           403.57103           432.68853           766.78122           457.27497           444.45035           430.86988           433.21941           285.30869           432.46843           342.71653           437.70118           435.21726           432.13826           641.24620           432.40184           435.39472           432.57697           432.43300           322.81501           432.40922           369.78718           383.66241           448.48353           549.44513           432.38872           432.77053           606.21647           437.46129           432.44802           400.62942           433.76603           315.48627           432.58423           398.45151           303.72458           432.43422           694.72159           432.40870           199.91009           540.28735           435.25298           432.47187           423.71442           329.01983           432.79520           432.63667           290.06821           432.44947           340.30960           437.21821           514.87014           432.38314           432.42985           432.81334           700.27975           437.85302           618.51969           451.97184           389.38317           432.72541           445.90679           376.59444           439.93063           432.65301           559.07406           432.85687           438.60175           750.51411           339.70385           477.17343           432.38160           432.39865           432.57241           435.65464           446.89629           434.04773           571.93128           435.08319           422.02635           432.39414           360.97162           359.37181           432.38274           433.81677           711.71502           432.37649           434.94880           433.30400           432.41323           432.38736           433.32470           435.52674           638.34182           380.93070           433.23948           443.96181           290.17043           316.25591           449.35591           432.47542           428.81466           520.23215           432.66030           503.82217           432.38563           578.65631           432.41448           432.75721           854.97853           432.38008           469.50552           426.47242           432.41042           300.52289           432.53922           432.48462           589.25552           432.61473           432.77062           432.75811           434.51502           481.74061           543.21958           432.44224           529.77115           432.77772           932.78410           978.13338           935.40428           464.12803           580.02994           436.09298           432.38234           432.64187           494.79073           432.55944           464.32388           432.99978           432.42654           430.66177           505.45680           418.97338           432.46489           432.40747           384.58590           432.67578           788.21677           434.27455           432.50399           432.45005           432.55307           432.65441           433.72116           432.39399           475.55082           589.89308           432.45310           432.37981           580.27979           432.58808           655.96236           454.46487           432.38153           432.37594           431.27237           432.50139           232.56269           368.99645           432.29469           436.32480           432.69341           510.90761           430.33472           432.83944           432.60939           433.75224           445.62429           432.37901           447.53952           432.74141           679.24454           431.93471           554.17013           267.52307           243.67052           253.77610           226.92820           432.37713           538.84323           409.54272           519.69597           432.37668           308.50300  