# vtk DataFile Version 3.0
Output from R2
ASCII
DATASET UNSTRUCTURED_GRID
POINTS       2188 double
    -5.00000     0.00000   0.
     0.00000     0.00000   0.
     1.00000     0.05000   0.
     2.00000     0.10000   0.
     3.00000     0.12000   0.
     4.00000     0.14000   0.
     5.00000     0.18000   0.
     6.00000     0.22000   0.
     7.00000     0.20000   0.
     8.00000     0.18000   0.
     9.00000     0.11000   0.
    10.00000     0.05000   0.
    11.00000     0.02000   0.
    12.00000    -0.01000   0.
    13.00000    -0.06000   0.
    14.00000    -0.11000   0.
    15.00000    -0.15000   0.
    16.00000    -0.19000   0.
    17.00000    -0.15000   0.
    18.00000    -0.11000   0.
    19.00000    -0.05000   0.
    20.00000     0.00000   0.
    21.00000    -0.07000   0.
    22.00000    -0.13000   0.
    23.00000    -0.08000   0.
    24.00000    -0.03000   0.
    25.00000     0.03000   0.
    26.00000     0.09000   0.
    27.00000     0.09000   0.
    28.00000     0.09000   0.
    29.00000     0.12000   0.
    30.00000     0.15000   0.
    31.00000     0.16000   0.
    32.00000     0.16000   0.
    33.00000     0.21000   0.
    34.00000     0.26000   0.
    35.00000     0.24000   0.
    36.00000     0.22000   0.
    37.00000     0.35000   0.
    37.99000     0.48000   0.
    38.99000     0.48000   0.
    39.99000     0.48000   0.
    40.99000     0.55000   0.
    41.99000     0.62000   0.
    42.98000     0.73000   0.
    43.98000     0.78000   0.
    44.98000     0.83000   0.
    45.98000     0.88000   0.
    46.98000     0.93000   0.
    47.98000     0.98000   0.
    48.98000     0.94000   0.
    49.98000     0.90000   0.
    50.98000     0.86000   0.
    51.98000     0.82000   0.
    52.98000     0.88000   0.
    53.98000     0.93000   0.
    54.98000     0.89000   0.
    55.98000     0.85000   0.
    56.98000     0.80000   0.
    57.98000     0.75000   0.
    58.98000     0.78000   0.
    59.98000     0.80000   0.
    60.98000     0.80000   0.
    61.98000     0.80000   0.
    62.99000     0.81000   0.
    63.99000     0.82000   0.
    64.99000     0.81000   0.
    65.99000     0.81000   0.
    66.99000     0.83000   0.
    67.99000     0.85000   0.
    68.99000     0.87000   0.
    69.99000     0.90000   0.
    70.99000     1.00000   0.
    71.98000     1.10000   0.
    72.98000     1.20000   0.
    73.98000     1.29000   0.
    74.98000     1.34000   0.
    75.97000     1.40000   0.
    76.97000     1.46000   0.
    77.97000     1.51000   0.
    78.97000     1.41000   0.
    79.97000     1.32000   0.
    80.97000     1.37000   0.
    81.97000     1.42000   0.
    82.97000     1.37000   0.
    83.97000     1.32000   0.
    84.97000     1.35000   0.
    85.97000     1.37000   0.
    86.97000     1.40000   0.
    87.97000     1.42000   0.
    88.97000     1.39000   0.
    89.97000     1.37000   0.
    90.97000     1.42000   0.
    91.97000     1.47000   0.
    92.97000     1.48000   0.
    93.97000     1.49000   0.
    94.97000     1.50000   0.
    95.98000     1.50000   0.
    96.98000     1.52000   0.
    97.98000     1.54000   0.
    98.98000     1.54000   0.
    99.98000     1.54000   0.
   100.98000     1.58000   0.
   101.98000     1.61000   0.
   102.98000     1.60000   0.
   103.98000     1.59000   0.
   104.98000     1.62000   0.
   105.98000     1.64000   0.
   106.98000     1.68000   0.
   107.98000     1.71000   0.
   108.98000     1.73000   0.
   109.99000     1.76000   0.
   110.99000     1.81000   0.
   111.99000     1.85000   0.
   112.99000     1.84000   0.
   113.99000     1.83000   0.
   114.99000     1.84000   0.
   115.99000     1.85000   0.
   116.99000     1.86000   0.
   117.99000     1.86000   0.
   118.99000     1.83000   0.
   119.99000     1.81000   0.
   120.99000     1.86000   0.
   121.99000     1.91000   0.
   122.99000     1.96000   0.
   123.99000     2.03000   0.
   124.99000     2.14000   0.
   125.98000     2.25000   0.
   126.98000     2.34000   0.
   131.98000     2.34000   0.
    -5.00000    -5.00000   0.
    -1.74000    -5.00000   0.
     1.52000    -4.92000   0.
     4.78000    -4.83000   0.
     8.05000    -4.82000   0.
    11.31000    -4.99000   0.
    14.57000    -5.13000   0.
    17.83000    -5.12000   0.
    21.09000    -5.07000   0.
    24.35000    -5.01000   0.
    27.61000    -4.91000   0.
    30.88000    -4.85000   0.
    34.14000    -4.74000   0.
    37.40000    -4.59000   0.
    40.66000    -4.47000   0.
    43.92000    -4.22000   0.
    47.18000    -4.06000   0.
    50.44000    -4.12000   0.
    53.70000    -4.09000   0.
    56.97000    -4.20000   0.
    60.23000    -4.20000   0.
    63.49000    -4.18000   0.
    66.75000    -4.17000   0.
    70.01000    -4.10000   0.
    73.27000    -3.77000   0.
    76.53000    -3.57000   0.
    79.79000    -3.66000   0.
    83.06000    -3.64000   0.
    86.32000    -3.62000   0.
    89.58000    -3.62000   0.
    92.84000    -3.52000   0.
    96.10000    -3.50000   0.
    99.36000    -3.46000   0.
   102.62000    -3.40000   0.
   105.89000    -3.36000   0.
   109.15000    -3.26000   0.
   112.41000    -3.16000   0.
   115.67000    -3.15000   0.
   118.93000    -3.17000   0.
   122.19000    -3.08000   0.
   125.45000    -2.81000   0.
   128.71000    -2.66000   0.
   131.98000    -2.66000   0.
  -639.88000     0.00000   0.
  -639.88000  -385.93000   0.
   766.86000     2.34000   0.
   766.86000  -385.93000   0.
    -3.07439     0.00000   0.
    -1.69523     0.00000   0.
    -0.70746     0.00000   0.
     0.50000     0.02500   0.
     1.50000     0.07500   0.
     2.50000     0.11000   0.
     3.50000     0.13000   0.
     4.50000     0.16000   0.
     5.50000     0.20000   0.
     6.50000     0.21000   0.
     7.50000     0.19000   0.
     8.50000     0.14500   0.
     9.50000     0.08000   0.
    10.50000     0.03500   0.
    11.50000     0.00500   0.
    12.50000    -0.03500   0.
    13.50000    -0.08500   0.
    14.50000    -0.13000   0.
    15.50000    -0.17000   0.
    16.50000    -0.17000   0.
    17.50000    -0.13000   0.
    18.50000    -0.08000   0.
    19.50000    -0.02500   0.
    20.50000    -0.03500   0.
    21.50000    -0.10000   0.
    22.50000    -0.10500   0.
    23.50000    -0.05500   0.
    24.50000     0.00000   0.
    25.50000     0.06000   0.
    26.50000     0.09000   0.
    27.50000     0.09000   0.
    28.50000     0.10500   0.
    29.50000     0.13500   0.
    30.50000     0.15500   0.
    31.50000     0.16000   0.
    32.50000     0.18500   0.
    33.50000     0.23500   0.
    34.50000     0.25000   0.
    35.50000     0.23000   0.
    36.50000     0.28500   0.
    37.49500     0.41500   0.
    38.49000     0.48000   0.
    39.49000     0.48000   0.
    40.49000     0.51500   0.
    41.49000     0.58500   0.
    42.48500     0.67500   0.
    43.48000     0.75500   0.
    44.48000     0.80500   0.
    45.48000     0.85500   0.
    46.48000     0.90500   0.
    47.48000     0.95500   0.
    48.48000     0.96000   0.
    49.48000     0.92000   0.
    50.48000     0.88000   0.
    51.48000     0.84000   0.
    52.48000     0.85000   0.
    53.48000     0.90500   0.
    54.48000     0.91000   0.
    55.48000     0.87000   0.
    56.48000     0.82500   0.
    57.48000     0.77500   0.
    58.48000     0.76500   0.
    59.48000     0.79000   0.
    60.48000     0.80000   0.
    61.48000     0.80000   0.
    62.48500     0.80500   0.
    63.49000     0.81500   0.
    64.49000     0.81500   0.
    65.49000     0.81000   0.
    66.49000     0.82000   0.
    67.49000     0.84000   0.
    68.49000     0.86000   0.
    69.49000     0.88500   0.
    70.49000     0.95000   0.
    71.48500     1.05000   0.
    72.48000     1.15000   0.
    73.48000     1.24500   0.
    74.48000     1.31500   0.
    75.47500     1.37000   0.
    76.47000     1.43000   0.
    77.47000     1.48500   0.
    78.47000     1.46000   0.
    79.47000     1.36500   0.
    80.47000     1.34500   0.
    81.47000     1.39500   0.
    82.47000     1.39500   0.
    83.47000     1.34500   0.
    84.47000     1.33500   0.
    85.47000     1.36000   0.
    86.47000     1.38500   0.
    87.47000     1.41000   0.
    88.47000     1.40500   0.
    89.47000     1.38000   0.
    90.47000     1.39500   0.
    91.47000     1.44500   0.
    92.47000     1.47500   0.
    93.47000     1.48500   0.
    94.47000     1.49500   0.
    95.47500     1.50000   0.
    96.48000     1.51000   0.
    97.48000     1.53000   0.
    98.48000     1.54000   0.
    99.48000     1.54000   0.
   100.48000     1.56000   0.
   101.48000     1.59500   0.
   102.48000     1.60500   0.
   103.48000     1.59500   0.
   104.48000     1.60500   0.
   105.48000     1.63000   0.
   106.48000     1.66000   0.
   107.48000     1.69500   0.
   108.48000     1.72000   0.
   109.48500     1.74500   0.
   110.49000     1.78500   0.
   111.49000     1.83000   0.
   112.49000     1.84500   0.
   113.49000     1.83500   0.
   114.49000     1.83500   0.
   115.49000     1.84500   0.
   116.49000     1.85500   0.
   117.49000     1.86000   0.
   118.49000     1.84500   0.
   119.49000     1.82000   0.
   120.49000     1.83500   0.
   121.49000     1.88500   0.
   122.49000     1.93500   0.
   123.49000     1.99500   0.
   124.49000     2.08500   0.
   125.48500     2.19500   0.
   126.48000     2.29500   0.
   127.68746     2.34000   0.
   128.67523     2.34000   0.
   130.05439     2.34000   0.
    -3.37000    -5.00000   0.
    -0.11000    -4.96000   0.
     3.15000    -4.87500   0.
     6.41500    -4.82500   0.
     9.68000    -4.90500   0.
    12.94000    -5.06000   0.
    16.20000    -5.12500   0.
    19.46000    -5.09500   0.
    22.72000    -5.04000   0.
    25.98000    -4.96000   0.
    29.24500    -4.88000   0.
    32.51000    -4.79500   0.
    35.77000    -4.66500   0.
    39.03000    -4.53000   0.
    42.29000    -4.34500   0.
    45.55000    -4.14000   0.
    48.81000    -4.09000   0.
    52.07000    -4.10500   0.
    55.33500    -4.14500   0.
    58.60000    -4.20000   0.
[...]
POINT_DATA      2188
CELL_DATA      4025
SCALARS Resistivity(ohm.m) double 1
LOOKUP_TABLE default
           438.45389           380.47729           468.39757           448.97252           453.27246           172.43985           445.88820           446.51940           443.12643           437.61543           377.72571           661.72698           450.27320           442.29572           449.07714           500.65728           450.83450           440.34454           371.70722           447.60409           441.05220           875.64435           442.09223           427.81864           445.06611           294.58919           501.05155           281.38314           505.28464           201.97418           182.67183           459.14368           450.99989           449.88657           361.50345           642.15887           644.75232           625.76510           220.12853           440.90064           416.22295           593.58748          8284.34896          1029.44065           442.92720           449.70551           498.45677           366.26864           459.78655           378.76923           442.82908           442.81046           214.00705           256.69919           217.00990           609.84385           438.57179           656.65084           364.93806           803.32371           447.22542           441.00086           357.46141           687.58876           442.80732          2804.39616           293.95676           465.98184           701.33440           440.37033           498.45677           968.41651           462.49629           371.80297           549.25469           427.40046           383.37671           220.79703           952.40031           495.06876           791.08470          1043.95103           440.85491           297.66045          1098.71181           440.57809           217.92535           440.76364           191.22692           317.41148           466.71575           445.80104           453.48695           440.81350           239.25213           477.80938           445.89934           963.61920           448.51848           410.12030           449.58000           453.85541           496.01736           508.00444          1000.94495           740.91278           454.25685           453.07085           460.01637           448.43408           385.15738           464.42308           443.13961           454.22849           447.81723           791.90714          3202.68587           441.17998           445.11770           677.98107           388.68834           456.38042           460.26238           224.02022           241.67599           466.97872           746.18507           864.88052           697.21937           451.37089           616.64683           495.12636           469.52269           437.29279           236.03798           450.48229           457.95906           454.94445           466.83695           461.86352           801.21885           184.52976           304.29301           270.50684           195.77074           440.55909           278.13856           562.82373           226.60612           456.07736           581.62832          1055.50858           454.86196           456.04145           456.88802           509.09251           455.47031           476.07676          1301.72801           484.54938           520.23487           605.17466           450.32281           888.79012           914.07161           230.00149           451.84854           448.71512           449.60383           679.84292           751.42780           441.25741           441.31954          1395.32032           349.18267           374.73172           389.84873           447.30666           452.58231           449.45224           476.54463           449.60955           280.86101           680.72519           409.70729          1085.56679           770.64655           371.08594           839.90586          1156.11890           401.03328           673.97976           451.46449           489.07361           417.63531           505.24018           440.37136           441.14953           754.32286           449.65259           472.67264           173.24829           505.43651           453.32925          1558.68857           499.36129           166.05917           702.39157           460.10881           460.29126           498.35674           645.54615           559.07208           448.06612           444.33890           267.92359           464.31288           598.15310           590.74533           452.78536           512.90951           449.22855           372.35254           834.55555          1406.58281           446.16156           242.81656          1557.82531           486.14542           457.70055           466.19063           637.91695           450.65827           886.96537           474.33797           458.85509           678.93061           442.38501           440.68264           673.61797           449.94160           451.76632           495.78942           457.94181           301.87963           449.93337           505.62365           447.10253           455.24257           448.97201           408.61765           471.93141           366.39024           678.29750           623.38826           385.70592           441.55704          3694.21495           863.45563           459.16650           320.41997           569.79361           447.61838           448.06977           643.79425           442.10407           640.64321           461.64328           458.19461           490.01461           424.07309           556.65251           461.58613           638.30702           451.53615           473.76086           463.22589           567.33886           451.18895           457.94214           876.06884           445.21595           523.80664         13624.44785           466.34020           462.34811           616.56445           440.96654           449.30391           453.77875           377.65352           434.95966           847.37982           441.37154           522.45167           499.00454           482.48098           476.97369           490.14237           298.21062           321.13783          1429.49037           456.12529           566.40242           401.51465           448.19083           543.84806           492.43396           390.31344           452.36860          1081.07336           545.95474           442.74558           584.79120           468.37457           433.15161           509.93314           240.15994           452.34314           909.87273           213.04128           448.19830           448.98326           432.86954           451.21399           461.53544           258.91681           441.05312           490.75935           452.07730           275.47322           766.99829           244.42071           946.10661           193.00920           447.39009           462.62619           448.24657           449.91216           449.12737           969.60953           440.33501           448.40843           453.44542           932.90349           440.38183           340.18860           177.36351           401.28784           452.16491           247.56204           471.94082           448.91516           462.89983           458.92235           441.21357           448.71333           440.49956           908.43034           454.80732           221.97116           452.09451           476.48163           442.32500           508.93911           638.85081           445.29966           367.50312           452.75628           503.68552           966.14336           559.00315           356.52869           606.70531          1048.09114           232.72171           440.54289           291.36862           389.99564           849.66406           654.23547           449.48145           428.46620           487.11608           451.91891           296.44232           831.30722           440.19235           475.69946         12469.92839           770.07530           300.68284           452.83594           703.66781           425.78670           440.59410           426.09146           480.52855           671.80074           441.44632           380.05636           471.60179           176.55337           283.29906           670.67354           648.38777           448.83408           262.88580           440.98831           449.22008           442.05905           446.65159           162.07381           441.16501           263.28720           441.23364           654.20372           518.87059           447.76694           550.63215           454.58122           447.71928           589.95356           259.23661           446.48147           464.76939           661.56728           502.90727           422.40668           633.47444           448.37859           410.20512           483.63695           486.73680           441.69323           741.75678           441.28655          1260.29588           257.15988           547.09318           451.39759           446.14980           419.63126           470.20826           453.04344           469.13389           477.41780           424.73517           414.87432           459.25430           462.56267           229.79608           205.11997           440.98935           463.46512           449.66759           200.70534           956.88031           450.45795           617.01235           523.15756           637.97357           442.04792           611.93340           694.33002           179.02576           279.19561           452.73553           159.41776           332.12846           407.06297           210.27513           448.95833           343.64507           509.07039           737.91656           450.97205           454.94022           437.81743           450.11392           711.79169           617.54234           226.71076           444.29032           281.22733           545.75058           439.35028           441.26562           519.59237          1159.53593           742.49560           449.35707           443.24225           652.15676           367.31750           868.93813           580.07887           766.49703           440.83163           447.98480           448.68659           414.36332           448.77612           759.55117           440.27241           449.57657           441.18941           467.07504           448.48427           447.93402           441.85253           440.24532           440.57373           441.12022           440.73422           296.24717           368.33120           474.33954           181.87710           483.45218           456.51166           386.55344           441.62639           448.10777           461.16363           256.85975           440.31161           450.35089           337.95687           457.03704           440.55148           415.87859          1216.02042           480.30283           447.78680           543.03589           510.61167           453.75840           448.75492           441.89460           288.54208           200.42821           353.05430           261.22208           368.35990           464.13001           456.71511           455.97488           482.48623           223.56800           385.17777           456.63233           481.05123           443.75263           549.84001           448.12606           459.18480           200.23998           863.71639           153.63191           443.67749           443.34599           214.58746           444.72601           349.65016           459.90789           874.06884          1336.58159           423.28278           449.30694           440.66772           213.36603           449.11479           636.01393           222.08463           470.04609           443.37496           324.93914           451.39569           449.45452           526.76256           450.66674           467.27284           447.94238           440.35723           539.22256           533.23083           440.35627           448.03771           441.05509           623.57514           784.88023          1556.44438          1473.31163          1590.96645          1665.79930           457.02388           426.45399           451.67703           441.20812           440.51600           505.27877           441.21421           440.46441           441.69389           381.01006           231.10661           439.35286           448.37557           440.40370           447.75882           474.83016           447.79968           428.96944          1157.53406           441.42239           441.96360           446.38526           447.24321           562.61399           455.74178           240.57062           442.82162           447.87180           450.22398           553.98772          1184.03817           760.18818           441.07006           976.33388           322.29960           447.82377           702.42797           900.50201           573.92264           440.24914           440.45870           449.94172           442.06272           440.40579           448.57706           440.30629           317.33256           301.36551           459.25203           679.26777           361.39144           296.16635           582.27284          2737.50379           447.77742           328.28312           473.95156           460.35870           805.15368           449.29244           450.38128           278.79824           449.02397           291.73827           400.82365           637.91094           417.11814           480.24251           442.14722           469.01571           471.94854           447.79183           447.80756           244.61805           428.75405           506.25264           440.80964           452.91878           448.18903           259.32475           470.72518           447.90584           447.74909           440.90014           669.84459           467.03746           582.18091           440.98010           621.26990           802.06437           695.26899           528.09086           448.01322           767.37262           450.86856           702.41512           680.54657           463.30986           444.92053           441.50137           449.33435           447.74460           440.68706           450.38233           618.15771           636.93768           967.64904           954.72139           160.87889           441.28443           448.38302           440.94166           440.58821           238.64569           441.20148           370.67372           450.01890           451.31085           344.51830           448.59428           197.13649           730.09435           610.77929           559.55335           419.81118           432.87238           878.34952           440.94726           165.99726           448.77259           440.60536           440.46441           467.89155           440.94667           447.71517           453.61118           463.24136           444.64270           595.28607          3627.22957           434.49027           448.62564           451.58427           455.06634           716.16451           455.71817           499.63769           404.00260           440.52967           566.85704           406.74127           455.11610           461.60329           387.59711           450.39689           558.87777           902.58211           440.89803           435.63055           480.53413           445.79522           310.14517           447.86012           438.91427           834.54204           440.78314           447.44427           440.35156           453.62118           469.38594           431.08283           440.99612           603.49375           462.70108           458.62681          1177.74464        121984.51359           440.98622           152.13312           464.01197           797.40844           391.42632          1273.49490           650.19705           713.59562           415.68405           447.92192           522.94591           440.67503           440.66368           245.25118           451.83325           334.80529           550.56285           281.70155           451.88811           485.82804           448.80222           570.32449           519.65847           449.61272           319.60926           309.20042           514.51142           444.14575           469.03640           418.03826           442.99469           977.90968           544.57614           514.84787           437.57994           445.53058           288.28456           441.64618           333.61596           469.37926           463.71348           439.76774           567.43041           448.37210           459.22064           440.77279           441.22231           338.88961           440.89764           396.72043           325.34102           492.34900           754.36046           440.62885           451.07038           858.68545           469.38544           449.11983           418.16910           453.68807           307.91525           442.25262           397.86603           261.55502           449.08269           933.57025           440.51392           196.32341           724.76772           471.76998           440.75706           450.48994           233.96697           443.04069           452.35718           202.69060           440.64257           286.86086           458.27412           610.94374           440.67417           448.83388           455.88022          1022.00906           484.32547           795.88020           508.75008           397.49688           451.40939           482.54833           374.86484           464.40955           441.03741           784.73068           456.74967           488.59072           960.66884           329.57093           550.41484           447.83366           440.80963           450.83056           474.29081           487.69827           465.69890           759.69361           471.61625           454.44518           448.19153           362.47260           352.20764           447.78593           464.11937           982.16109           440.57260           456.46440           460.42803           440.80725           440.72695           449.53604           463.27711           654.42389           402.07009           459.63787           474.72550           294.62961           272.27476           493.40201           442.40579           434.39006           705.01912           441.19392           619.62360           447.95854           534.11132           441.08754           444.61319          1388.76740           447.84884           615.98846           432.02244           448.56232           276.15082           440.94612           449.44485           582.63519           450.86524           452.62984           454.30727           453.62963           595.59901           859.22916           441.46231           637.71694           448.39189          1608.88585          1717.56274          1604.43594           526.11088           795.40244           474.63391           447.88793           451.28525           620.72301           450.29626           560.30015           454.30815           440.59794           446.57690           502.30216           454.56050           443.73863           448.55625           301.45959           444.09999          1261.53196           451.09616           440.85447           449.07145           450.23757           444.74241           458.69588           440.43413           609.48650           835.17408           449.09272           447.69841           620.95654           450.86617           789.83091           507.77166           447.72926           440.70061           438.33995           441.12537           226.71065           288.91755           440.09675           467.52585           441.63277           627.89192           436.71704           443.68281           442.65132           448.49706           486.88506           440.29282           494.64860           441.63408           999.05956           439.43120           721.40637           210.69689           164.20353           203.10305           246.70318           440.47938           665.61714           301.56689           671.76172           440.70597           212.21862  