# vtk DataFile Version 3.0
Output from R2
ASCII
DATASET UNSTRUCTURED_GRID
POINTS       2188 double
    -5.00000     0.00000   0.
     0.00000     0.00000   0.
     1.00000     0.05000   0.
     2.00000     0.10000   0.
     3.00000     0.12000   0.
     4.00000     0.14000   0.
     5.00000     0.18000   0.
     6.00000     0.22000   0.
     7.00000     0.20000   0.
     8.00000     0.18000   0.
     9.00000     0.11000   0.
    10.00000     0.05000   0.
    11.00000     0.02000   0.
    12.00000    -0.01000   0.
    13.00000    -0.06000   0.
    14.00000    -0.11000   0.
    15.00000    -0.15000   0.
    16.00000    -0.19000   0.
    17.00000    -0.15000   0.
    18.00000    -0.11000   0.
    19.00000    -0.05000   0.
    20.00000     0.00000   0.
    21.00000    -0.07000   0.
    22.00000    -0.13000   0.
    23.00000    -0.08000   0.
    24.00000    -0.03000   0.
    25.00000     0.03000   0.
    26.00000     0.09000   0.
    27.00000     0.09000   0.
    28.00000     0.09000   0.
    29.00000     0.12000   0.
    30.00000     0.15000   0.
    31.00000     0.16000   0.
    32.00000     0.16000   0.
    33.00000     0.21000   0.
    34.00000     0.26000   0.
    35.00000     0.24000   0.
    36.00000     0.22000   0.
    37.00000     0.35000   0.
    37.99000     0.48000   0.
    38.99000     0.48000   0.
    39.99000     0.48000   0.
    40.99000     0.55000   0.
    41.99000     0.62000   0.
    42.98000     0.73000   0.
    43.98000     0.78000   0.
    44.98000     0.83000   0.
    45.98000     0.88000   0.
    46.98000     0.93000   0.
    47.98000     0.98000   0.
    48.98000     0.94000   0.
    49.98000     0.90000   0.
    50.98000     0.86000   0.
    51.98000     0.82000   0.
    52.98000     0.88000   0.
    53.98000     0.93000   0.
    54.98000     0.89000   0.
    55.98000     0.85000   0.
    56.98000     0.80000   0.
    57.98000     0.75000   0.
    58.98000     0.78000   0.
    59.98000     0.80000   0.
    60.98000     0.80000   0.
    61.98000     0.80000   0.
    62.99000     0.81000   0.
    63.99000     0.82000   0.
    64.99000     0.81000   0.
    65.99000     0.81000   0.
    66.99000     0.83000   0.
    67.99000     0.85000   0.
    68.99000     0.87000   0.
    69.99000     0.90000   0.
    70.99000     1.00000   0.
    71.98000     1.10000   0.
    72.98000     1.20000   0.
    73.98000     1.29000   0.
    74.98000     1.34000   0.
    75.97000     1.40000   0.
    76.97000     1.46000   0.
    77.97000     1.51000   0.
    78.97000     1.41000   0.
    79.97000     1.32000   0.
    80.97000     1.37000   0.
    81.97000     1.42000   0.
    82.97000     1.37000   0.
    83.97000     1.32000   0.
    84.97000     1.35000   0.
    85.97000     1.37000   0.
    86.97000     1.40000   0.
    87.97000     1.42000   0.
    88.97000     1.39000   0.
    89.97000     1.37000   0.
    90.97000     1.42000   0.
    91.97000     1.47000   0.
    92.97000     1.48000   0.
    93.97000     1.49000   0.
    94.97000     1.50000   0.
    95.98000     1.50000   0.
    96.98000     1.52000   0.
    97.98000     1.54000   0.
    98.98000     1.54000   0.
    99.98000     1.54000   0.
   100.98000     1.58000   0.
   101.98000     1.61000   0.
   102.98000     1.60000   0.
   103.98000     1.59000   0.
   104.98000     1.62000   0.
   105.98000     1.64000   0.
   106.98000     1.68000   0.
   107.98000     1.71000   0.
   108.98000     1.73000   0.
   109.99000     1.76000   0.
   110.99000     1.81000   0.
   111.99000     1.85000   0.
   112.99000     1.84000   0.
   113.99000     1.83000   0.
   114.99000     1.84000   0.
   115.99000     1.85000   0.
   116.99000     1.86000   0.
   117.99000     1.86000   0.
   118.99000     1.83000   0.
   119.99000     1.81000   0.
   120.99000     1.86000   0.
   121.99000     1.91000   0.
   122.99000     1.96000   0.
   123.99000     2.03000   0.
   124.99000     2.14000   0.
   125.98000     2.25000   0.
   126.98000     2.34000   0.
   131.98000     2.34000   0.
    -5.00000    -5.00000   0.
    -1.74000    -5.00000   0.
     1.52000    -4.92000   0.
     4.78000    -4.83000   0.
     8.05000    -4.82000   0.
    11.31000    -4.99000   0.
    14.57000    -5.13000   0.
    17.83000    -5.12000   0.
    21.09000    -5.07000   0.
    24.35000    -5.01000   0.
    27.61000    -4.91000   0.
    30.88000    -4.85000   0.
    34.14000    -4.74000   0.
    37.40000    -4.59000   0.
    40.66000    -4.47000   0.
    43.92000    -4.22000   0.
    47.18000    -4.06000   0.
    50.44000    -4.12000   0.
    53.70000    -4.09000   0.
    56.97000    -4.20000   0.
    60.23000    -4.20000   0.
    63.49000    -4.18000   0.
    66.75000    -4.17000   0.
    70.01000    -4.10000   0.
    73.27000    -3.77000   0.
    76.53000    -3.57000   0.
    79.79000    -3.66000   0.
    83.06000    -3.64000   0.
    86.32000    -3.62000   0.
    89.58000    -3.62000   0.
    92.84000    -3.52000   0.
    96.10000    -3.50000   0.
    99.36000    -3.46000   0.
   102.62000    -3.40000   0.
   105.89000    -3.36000   0.
   109.15000    -3.26000   0.
   112.41000    -3.16000   0.
   115.67000    -3.15000   0.
   118.93000    -3.17000   0.
   122.19000    -3.08000   0.
   125.45000    -2.81000   0.
   128.71000    -2.66000   0.
   131.98000    -2.66000   0.
  -639.88000     0.00000   0.
  -639.88000  -385.93000   0.
   766.86000     2.34000   0.
   766.86000  -385.93000   0.
    -3.07439     0.00000   0.
    -1.69523     0.00000   0.
    -0.70746     0.00000   0.
     0.50000     0.02500   0.
     1.50000     0.07500   0.
     2.50000     0.11000   0.
     3.50000     0.13000   0.
     4.50000     0.16000   0.
     5.50000     0.20000   0.
     6.50000     0.21000   0.
     7.50000     0.19000   0.
     8.50000     0.14500   0.
     9.50000     0.08000   0.
    10.50000     0.03500   0.
    11.50000     0.00500   0.
    12.50000    -0.03500   0.
    13.50000    -0.08500   0.
    14.50000    -0.13000   0.
    15.50000    -0.17000   0.
    16.50000    -0.17000   0.
    17.50000    -0.13000   0.
    18.50000    -0.08000   0.
    19.50000    -0.02500   0.
    20.50000    -0.03500   0.
    21.50000    -0.10000   0.
    22.50000    -0.10500   0.
    23.50000    -0.05500   0.
    24.50000     0.00000   0.
    25.50000     0.06000   0.
    26.50000     0.09000   0.
    27.50000     0.09000   0.
    28.50000     0.10500   0.
    29.50000     0.13500   0.
    30.50000     0.15500   0.
    31.50000     0.16000   0.
    32.50000     0.18500   0.
    33.50000     0.23500   0.
    34.50000     0.25000   0.
    35.50000     0.23000   0.
    36.50000     0.28500   0.
    37.49500     0.41500   0.
    38.49000     0.48000   0.
    39.49000     0.48000   0.
    40.49000     0.51500   0.
    41.49000     0.58500   0.
    42.48500     0.67500   0.
    43.48000     0.75500   0.
    44.48000     0.80500   0.
    45.48000     0.85500   0.
    46.48000     0.90500   0.
    47.48000     0.95500   0.
    48.48000     0.96000   0.
    49.48000     0.92000   0.
    50.48000     0.88000   0.
    51.48000     0.84000   0.
    52.48000     0.85000   0.
    53.48000     0.90500   0.
    54.48000     0.91000   0.
    55.48000     0.87000   0.
    56.48000     0.82500   0.
    57.48000     0.77500   0.
    58.48000     0.76500   0.
    59.48000     0.79000   0.
    60.48000     0.80000   0.
    61.48000     0.80000   0.
    62.48500     0.80500   0.
    63.49000     0.81500   0.
    64.49000     0.81500   0.
    65.49000     0.81000   0.
    66.49000     0.82000   0.
    67.49000     0.84000   0.
    68.49000     0.86000   0.
    69.49000     0.88500   0.
    70.49000     0.95000   0.
    71.48500     1.05000   0.
    72.48000     1.15000   0.
    73.48000     1.24500   0.
    74.48000     1.31500   0.
    75.47500     1.37000   0.
    76.47000     1.43000   0.
    77.47000     1.48500   0.
    78.47000     1.46000   0.
    79.47000     1.36500   0.
    80.47000     1.34500   0.
    81.47000     1.39500   0.
    82.47000     1.39500   0.
    83.47000     1.34500   0.
    84.47000     1.33500   0.
    85.47000     1.36000   0.
    86.47000     1.38500   0.
    87.47000     1.41000   0.
    88.47000     1.40500   0.
    89.47000     1.38000   0.
    90.47000     1.39500   0.
    91.47000     1.44500   0.
    92.47000     1.47500   0.
    93.47000     1.48500   0.
    94.47000     1.49500   0.
    95.47500     1.50000   0.
    96.48000     1.51000   0.
    97.48000     1.53000   0.
    98.48000     1.54000   0.
    99.48000     1.54000   0.
   100.48000     1.56000   0.
   101.48000     1.59500   0.
   102.48000     1.60500   0.
   103.48000     1.59500   0.
   104.48000     1.60500   0.
   105.48000     1.63000   0.
   106.48000     1.66000   0.
   107.48000     1.69500   0.
   108.48000     1.72000   0.
   109.48500     1.74500   0.
   110.49000     1.78500   0.
   111.49000     1.83000   0.
   112.49000     1.84500   0.
   113.49000     1.83500   0.
   114.49000     1.83500   0.
   115.49000     1.84500   0.
   116.49000     1.85500   0.
   117.49000     1.86000   0.
   118.49000     1.84500   0.
   119.49000     1.82000   0.
   120.49000     1.83500   0.
   121.49000     1.88500   0.
   122.49000     1.93500   0.
   123.49000     1.99500   0.
   124.49000     2.08500   0.
   125.48500     2.19500   0.
   126.48000     2.29500   0.
   127.68746     2.34000   0.
   128.67523     2.34000   0.
   130.05439     2.34000   0.
    -3.37000    -5.00000   0.
    -0.11000    -4.96000   0.
     3.15000    -4.87500   0.
     6.41500    -4.82500   0.
     9.68000    -4.90500   0.
    12.94000    -5.06000   0.
    16.20000    -5.12500   0.
    19.46000    -5.09500   0.
    22.72000    -5.04000   0.
    25.98000    -4.96000   0.
    29.24500    -4.88000   0.
    32.51000    -4.79500   0.
    35.77000    -4.66500   0.
    39.03000    -4.53000   0.
    42.29000    -4.34500   0.
    45.55000    -4.14000   0.
    48.81000    -4.09000   0.
    52.07000    -4.10500   0.
    55.33500    -4.14500   0.
    58.60000    -4.20000   0.
[...]
POINT_DATA      2188
CELL_DATA      4025
SCALARS Resistivity(ohm.m) double 1
LOOKUP_TABLE default
           431.01969           462.87475           437.18900           432.99561           433.42528           238.24461           432.88973           433.07276           433.22444           430.15712           369.31935           563.20524           432.98758           433.10330           436.30173           455.75745           433.87106           432.39518           363.64322           435.94988           432.67907           766.46104           431.86954           418.78660           432.70064           365.67030           448.47328           275.65452           457.56149           195.53996           240.92316           435.04392           434.11882           432.64989           343.91513           616.51384           557.51996           557.03657           216.01384           432.63378           406.31607           528.71339          4079.03406           788.54173           432.58839           432.95463           461.39835           348.59651           435.72568           371.08940           433.23326           432.14261           289.39201           269.71908           254.87071           531.09437           430.12478           634.01130           355.74398           606.47750           432.97216           432.40712           388.74685           508.44211           433.08551          1847.72506           305.79817           435.21838           564.58393           432.40176           451.27378           797.17685           384.58580           363.75408           434.02294           418.96254           487.82586           264.47495           780.82617           445.64851           622.20664           797.03155           432.40032           279.16764           878.28982           432.43236           205.33216           432.87199           194.28215           297.23915           435.10367           433.38538           433.07497           432.57259           223.84188           445.69954           432.77722           723.94595           432.87719           449.32003           433.48144           439.78121           458.08335           465.74963           757.88255           674.44730           433.20589           433.49569           435.46147           436.65493           377.12015           434.79095           432.57232           459.69823           432.96898           706.05268          1910.05355           433.04808           432.78797           506.96606           378.85977           434.76081           434.01448           245.83984           226.81508           437.23977           676.26152           748.78527           569.54920           432.72710           550.70638           438.81532           442.38249           429.53534           226.20920           433.29188           436.38696           434.84215           442.02649           438.70357           729.89010           192.50881           287.35930           260.71393           194.52072           432.42067           343.82279           504.08125           215.11502           434.21609           517.17760           799.08250           439.22148           441.50204           433.55217           485.16918           434.63649           426.76625           897.36781           442.59954           426.91604           525.87786           432.73277           648.79132           758.37718           256.26986           434.05821           433.07242           432.61555           564.53627           690.70828           432.56747           432.43702          1024.14890           284.26035           367.25444           357.99437           405.84799           433.81209           432.69215           445.21495           433.04118           271.81312           626.15596           402.22763           802.42771           683.22306           370.76407           693.07750           835.25467           379.46631           560.30126           432.77382           447.01595           398.08840           451.34283           432.38941           432.58746           619.50861           433.33223           487.53549           213.54659           530.94356           438.63894          1086.63909           444.22145           186.48002           705.39635           437.04122           436.86293           449.66097           609.54004           686.22717           432.41611           432.63466           249.16162           439.51707           520.03526           571.75992           434.03608           466.65929           432.48147           363.48819           727.65689          1022.77416           434.79822           322.88942          1142.69197           446.74789           443.31799           435.99682           527.24279           432.84256           746.73129           447.96834           435.62321           541.69003           432.50745           432.39175           558.75602           432.57080           433.84856           457.70731           439.29452           342.25802           432.76830           452.88666           433.75042           435.18355           432.48444           387.70236           443.27184           357.82378           564.50375           654.16074           390.22581           432.81488          2463.70238           668.91126           436.16843           297.44658           565.78890           435.41471           432.41825           563.01779           432.48069           543.30180           434.85843           436.78314           449.69579           392.40349           477.67323           434.24274           592.91827           433.03866           457.49638           434.69016           509.04035           437.23741           433.66812           708.00536           433.19664           505.59014          4518.55658           442.39805           439.37525           589.20576           432.59443           432.56820           433.18111           369.01436           426.37012           711.45024           432.42977           475.61459           460.75001           458.47533           449.10068           469.59803           291.58301           298.86175           992.96856           435.04562           575.13468           430.32426           432.42401           627.03683           472.07878           382.88669           434.82620           838.22096           475.51468           432.53143           513.11680           452.52767           424.04934           466.99364           224.31509           434.61045           697.94024           239.42107           432.42015           432.46571           366.85420           433.37585           435.18264           244.35817           432.86478           445.33351           432.88087           255.05105           627.87280           252.46650           776.97227           188.98725           432.86225           440.64429           432.41458           432.58225           432.51556           754.07234           432.41141           432.42572           433.94579           723.86755           432.42274           412.65442           187.34355           325.47397           432.93533           259.57385           438.52572           432.48074           447.85784           435.28404           432.89620           432.44234           432.47018           739.83254           438.44287           258.53872           438.98413           456.68504           432.97338           490.74003           516.27915           434.29263           391.80871           433.24867           459.06467           736.20307           421.13179           319.89031           540.69110           884.85243           223.25877           432.16425           283.71464           435.81508           631.75686           560.55735           432.58165           418.89872           453.14361           432.79764           285.21157           732.16858           431.58399           440.54470          5602.22923           678.22359           287.96638           433.06440           619.00086           404.47665           432.38689           355.81691           441.40700           556.93514           432.74813           371.28891           441.67054           177.51372           266.55537           562.20595           513.22980           432.83783           237.89174           432.80025           432.82342           471.80228           432.80928           179.64296           433.04990           259.72591           432.41333           603.71946           447.83425           436.33058           495.50830           433.74291           433.15386           592.42700           249.20365           433.47805           438.52888           585.24825           454.73575           431.92317           696.16459           432.43007           402.40119           464.42459           452.49278           433.15701           590.09263           433.07794           982.70566           294.24849           524.65937           487.65020           433.16115           412.32150           440.65811           433.69781           444.71272           442.59082           414.86908           407.51549           433.97764           436.77931           298.15313           197.39226           432.98015           435.99513           432.59655           221.86205           792.51217           433.43105           541.42713           531.93437           512.09906           432.83779           526.05265           575.53547           183.97429           327.02067           432.95987           194.38937           345.97926           466.31857           206.10452           432.48459           362.87187           485.96615           605.33601           438.58579           538.19189           429.06174           433.95191           630.36684           629.67586           221.76513           433.90216           241.71581           491.17695           431.80452           432.75398           567.19495           934.92397           612.60642           432.61813           432.54932           497.04703           358.54483           735.75485           650.57224           697.70231           432.59638           432.40187           433.35218           393.43925           433.52802           603.35830           432.39760           426.89729           433.02050           438.41884           432.42819           432.85954           432.91462           432.39077           432.46034           432.52343           432.39119           284.22963           362.00696           452.67798           199.33946           449.42117           443.03454           377.74947           432.43730           432.40635           446.15541           269.72866           432.40366           432.75914           328.56031           434.35831           432.48575           408.05352           930.04618           448.16009           432.37906           662.17180           456.67826           433.79373           432.45622           432.45164           346.77532           201.41231           380.58721           308.23398           380.89307           446.80699           434.54371           433.39447           443.39800           211.15595           429.68622           439.31104           592.31829           433.59205           534.41469           432.41189           438.51049           204.29456           650.66853           171.41463           433.46634           433.75485           211.28616           434.35899           340.18474           436.21588           697.62572           962.77532           416.15406           432.74441           432.44640           212.93008           432.51536           569.95200           251.25359           443.48568           433.66832           311.12152           432.81445           432.53182           507.86762           438.09816           446.49350           432.41541           432.38573           467.07973           466.77197           432.40626           432.41014           432.40461           596.01474           645.67264          1082.18371           989.40482          1056.85281          1106.04957           433.70217           419.38579           433.27808           432.41584           432.72015           505.64042           432.68998           432.45317           432.75212           421.30938           219.51111           426.81385           432.41964           432.38315           432.37401           414.94806           432.38318           422.00908           844.90394           432.42361           433.00633           432.87292           433.15644           546.25319           437.55441           250.19721           432.52081           432.40047           432.87554           476.81585          1064.23539           695.49470           432.70455           759.36634           313.23580           432.39370           607.02419           735.00460           475.58652           432.38927           432.39038           432.69017           433.20948           432.43788           432.43849           432.38632           348.12883           286.96788           434.54038           540.78402           349.67519           333.60223           569.84161          1744.80160           432.38111           314.03425           440.51202           440.45936           693.76456           432.47295           434.27073           265.19814           432.45960           282.21410           372.68523           542.89458           349.62938           462.72467           432.47079           451.38336           437.81518           432.39838           432.39983           284.94433           421.45638           449.85336           432.39114           436.84266           432.41582           320.42646           443.55260           432.40436           432.39053           432.39757           592.94364           435.82680           493.85184           432.82627           537.20314           624.02152           611.97213           510.15748           432.41627           674.94762           432.70124           660.47819           565.15824           444.69839           434.52974           432.59397           432.53614           432.38307           432.55076           432.56416           529.73846           578.17647           900.57938           755.77275           172.27457           432.91213           432.42869           432.56174           432.50548           249.93766           432.74976           355.73288           435.91365           432.69045           362.49676           432.44124           205.16335           642.77301           545.17421           567.10130           412.27984           425.95723           765.21958           432.98049           173.88996           432.44947           432.38024           432.38306           451.39356           432.72965           432.39076           433.03227           438.10957           433.06846           516.55846          2095.71920           426.56531           432.43600           434.66815           433.21478           598.97349           434.40264           446.82781           396.37916           432.40270           536.25390           438.56981           433.29811           440.74998           452.18708           432.62791           549.18446           736.76324           432.66894           428.65857           439.51394           435.01964           284.30030           432.40623           431.61174           724.47592           432.60014           434.84928           432.69328           434.73909           435.85105           424.12877           432.92447           558.36238           434.23119           433.60364           870.46596         20022.71237           432.76832           174.58361           435.30276           693.92870           368.46960           930.53268           630.58324           627.64029           402.38513           433.38126           474.88652           432.41913           432.45993           231.69737           432.76677           305.71715           517.17018           365.16459           433.04810           454.30395           432.45049           502.93051           461.40317           432.49501           288.52795           302.05932           492.97974           433.54227           438.36813           384.93883           432.99179           766.18781           477.55105           453.86071           430.44586           434.06756           278.81765           432.56523           324.07658           441.53214           436.99811           432.30693           573.86732           432.41935           438.09926           432.91629           432.50396           309.49310           432.45216           371.67694           345.40438           467.18413           627.07626           432.40829           433.21321           688.22146           440.84554           432.48569           401.87884           434.97641           299.17386           432.78729           390.08113           286.45811           432.46573           766.60112           432.44788           190.86305           590.14635           436.88195           432.57726           432.46950           299.92049           433.33855           432.84186           276.05595           432.52771           320.36781           442.67602           602.74242           432.39825           432.46057           433.32249           772.23706           440.92897           676.52510           469.49591           382.71313           433.12670           462.80606           363.10550           448.27280           432.97183           653.62975           433.39582           442.42010           759.40179           328.43095           491.60106           432.39390           432.43085           432.62265           437.38115           464.65279           434.87305           688.59159           436.56389           434.67204           432.41794           348.77718           338.32919           432.39758           434.53379           801.06374           432.38224           437.38531           433.84151           432.46201           432.40458           434.20845           437.57633           667.74526           375.26966           433.76788           457.95977           283.43351           298.36845           472.17189           432.58480           427.42426           588.79767           432.98299           536.09791           432.41263           537.99236           432.47023           433.13137           994.53710           432.39818           517.02387           424.35483           432.43153           275.43860           432.70026           432.54130           579.13324           432.72140           433.08430           433.13489           436.67547           491.23464           698.76319           432.52536           567.08705           436.54932          1099.16906          1122.10703          1056.50655           476.92822           638.89435           438.03968           432.40407           432.82141           538.45923           432.63795           489.36469           433.46797           432.48134           434.22048           506.76939           431.05675           432.58708           432.43242           358.38701           432.98678           893.97249           436.02897           432.63182           432.48933           432.64892           432.93046           434.57388           432.42266           496.83053           649.22521           432.49343           432.39662           605.64638           432.64632           694.08826           464.29659           432.39480           432.38182           431.09435           432.63604           217.13855           355.55671           432.53060           439.09594           433.18344           575.71361           429.63773           433.33366           432.85858           435.12415           460.68046           432.39166           454.33251           433.18051           766.21496           432.02970           601.69835           246.46829           219.17364           234.62132           244.45128           432.38637           577.00580           386.13440           573.58466           432.38494           282.76996  