# vtk DataFile Version 3.0
Output from R2
ASCII
DATASET UNSTRUCTURED_GRID
POINTS       2188 double
    -5.00000     0.00000   0.
     0.00000     0.00000   0.
     1.00000     0.05000   0.
     2.00000     0.10000   0.
     3.00000     0.12000   0.
     4.00000     0.14000   0.
     5.00000     0.18000   0.
     6.00000     0.22000   0.
     7.00000     0.20000   0.
     8.00000     0.18000   0.
     9.00000     0.11000   0.
    10.00000     0.05000   0.
    11.00000     0.02000   0.
    12.00000    -0.01000   0.
    13.00000    -0.06000   0.
    14.00000    -0.11000   0.
    15.00000    -0.15000   0.
    16.00000    -0.19000   0.
    17.00000    -0.15000   0.
    18.00000    -0.11000   0.
    19.00000    -0.05000   0.
    20.00000     0.00000   0.
    21.00000    -0.07000   0.
    22.00000    -0.13000   0.
    23.00000    -0.08000   0.
    24.00000    -0.03000   0.
    25.00000     0.03000   0.
    26.00000     0.09000   0.
    27.00000     0.09000   0.
    28.00000     0.09000   0.
    29.00000     0.12000   0.
    30.00000     0.15000   0.
    31.00000     0.16000   0.
    32.00000     0.16000   0.
    33.00000     0.21000   0.
    34.00000     0.26000   0.
    35.00000     0.24000   0.
    36.00000     0.22000   0.
    37.00000     0.35000   0.
    37.99000     0.48000   0.
    38.99000     0.48000   0.
    39.99000     0.48000   0.
    40.99000     0.55000   0.
    41.99000     0.62000   0.
    42.98000     0.73000   0.
    43.98000     0.78000   0.
    44.98000     0.83000   0.
    45.98000     0.88000   0.
    46.98000     0.93000   0.
    47.98000     0.98000   0.
    48.98000     0.94000   0.
    49.98000     0.90000   0.
    50.98000     0.86000   0.
    51.98000     0.82000   0.
    52.98000     0.88000   0.
    53.98000     0.93000   0.
    54.98000     0.89000   0.
    55.98000     0.85000   0.
    56.98000     0.80000   0.
    57.98000     0.75000   0.
    58.98000     0.78000   0.
    59.98000     0.80000   0.
    60.98000     0.80000   0.
    61.98000     0.80000   0.
    62.99000     0.81000   0.
    63.99000     0.82000   0.
    64.99000     0.81000   0.
    65.99000     0.81000   0.
    66.99000     0.83000   0.
    67.99000     0.85000   0.
    68.99000     0.87000   0.
    69.99000     0.90000   0.
    70.99000     1.00000   0.
    71.98000     1.10000   0.
    72.98000     1.20000   0.
    73.98000     1.29000   0.
    74.98000     1.34000   0.
    75.97000     1.40000   0.
    76.97000     1.46000   0.
    77.97000     1.51000   0.
    78.97000     1.41000   0.
    79.97000     1.32000   0.
    80.97000     1.37000   0.
    81.97000     1.42000   0.
    82.97000     1.37000   0.
    83.97000     1.32000   0.
    84.97000     1.35000   0.
    85.97000     1.37000   0.
    86.97000     1.40000   0.
    87.97000     1.42000   0.
    88.97000     1.39000   0.
    89.97000     1.37000   0.
    90.97000     1.42000   0.
    91.97000     1.47000   0.
    92.97000     1.48000   0.
    93.97000     1.49000   0.
    94.97000     1.50000   0.
    95.98000     1.50000   0.
    96.98000     1.52000   0.
    97.98000     1.54000   0.
    98.98000     1.54000   0.
    99.98000     1.54000   0.
   100.98000     1.58000   0.
   101.98000     1.61000   0.
   102.98000     1.60000   0.
   103.98000     1.59000   0.
   104.98000     1.62000   0.
   105.98000     1.64000   0.
   106.98000     1.68000   0.
   107.98000     1.71000   0.
   108.98000     1.73000   0.
   109.99000     1.76000   0.
   110.99000     1.81000   0.
   111.99000     1.85000   0.
   112.99000     1.84000   0.
   113.99000     1.83000   0.
   114.99000     1.84000   0.
   115.99000     1.85000   0.
   116.99000     1.86000   0.
   117.99000     1.86000   0.
   118.99000     1.83000   0.
   119.99000     1.81000   0.
   120.99000     1.86000   0.
   121.99000     1.91000   0.
   122.99000     1.96000   0.
   123.99000     2.03000   0.
   124.99000     2.14000   0.
   125.98000     2.25000   0.
   126.98000     2.34000   0.
   131.98000     2.34000   0.
    -5.00000    -5.00000   0.
    -1.74000    -5.00000   0.
     1.52000    -4.92000   0.
     4.78000    -4.83000   0.
     8.05000    -4.82000   0.
    11.31000    -4.99000   0.
    14.57000    -5.13000   0.
    17.83000    -5.12000   0.
    21.09000    -5.07000   0.
    24.35000    -5.01000   0.
    27.61000    -4.91000   0.
    30.88000    -4.85000   0.
    34.14000    -4.74000   0.
    37.40000    -4.59000   0.
    40.66000    -4.47000   0.
    43.92000    -4.22000   0.
    47.18000    -4.06000   0.
    50.44000    -4.12000   0.
    53.70000    -4.09000   0.
    56.97000    -4.20000   0.
    60.23000    -4.20000   0.
    63.49000    -4.18000   0.
    66.75000    -4.17000   0.
    70.01000    -4.10000   0.
    73.27000    -3.77000   0.
    76.53000    -3.57000   0.
    79.79000    -3.66000   0.
    83.06000    -3.64000   0.
    86.32000    -3.62000   0.
    89.58000    -3.62000   0.
    92.84000    -3.52000   0.
    96.10000    -3.50000   0.
    99.36000    -3.46000   0.
   102.62000    -3.40000   0.
   105.89000    -3.36000   0.
   109.15000    -3.26000   0.
   112.41000    -3.16000   0.
   115.67000    -3.15000   0.
   118.93000    -3.17000   0.
   122.19000    -3.08000   0.
   125.45000    -2.81000   0.
   128.71000    -2.66000   0.
   131.98000    -2.66000   0.
  -639.88000     0.00000   0.
  -639.88000  -385.93000   0.
   766.86000     2.34000   0.
   766.86000  -385.93000   0.
    -3.07439     0.00000   0.
    -1.69523     0.00000   0.
    -0.70746     0.00000   0.
     0.50000     0.02500   0.
     1.50000     0.07500   0.
     2.50000     0.11000   0.
     3.50000     0.13000   0.
     4.50000     0.16000   0.
     5.50000     0.20000   0.
     6.50000     0.21000   0.
     7.50000     0.19000   0.
     8.50000     0.14500   0.
     9.50000     0.08000   0.
    10.50000     0.03500   0.
    11.50000     0.00500   0.
    12.50000    -0.03500   0.
    13.50000    -0.08500   0.
    14.50000    -0.13000   0.
    15.50000    -0.17000   0.
    16.50000    -0.17000   0.
    17.50000    -0.13000   0.
    18.50000    -0.08000   0.
    19.50000    -0.02500   0.
    20.50000    -0.03500   0.
    21.50000    -0.10000   0.
    22.50000    -0.10500   0.
    23.50000    -0.05500   0.
    24.50000     0.00000   0.
    25.50000     0.06000   0.
    26.50000     0.09000   0.
    27.50000     0.09000   0.
    28.50000     0.10500   0.
    29.50000     0.13500   0.
    30.50000     0.15500   0.
    31.50000     0.16000   0.
    32.50000     0.18500   0.
    33.50000     0.23500   0.
    34.50000     0.25000   0.
    35.50000     0.23000   0.
    36.50000     0.28500   0.
    37.49500     0.41500   0.
    38.49000     0.48000   0.
    39.49000     0.48000   0.
    40.49000     0.51500   0.
    41.49000     0.58500   0.
    42.48500     0.67500   0.
    43.48000     0.75500   0.
    44.48000     0.80500   0.
    45.48000     0.85500   0.
    46.48000     0.90500   0.
    47.48000     0.95500   0.
    48.48000     0.96000   0.
    49.48000     0.92000   0.
    50.48000     0.88000   0.
    51.48000     0.84000   0.
    52.48000     0.85000   0.
    53.48000     0.90500   0.
    54.48000     0.91000   0.
    55.48000     0.87000   0.
    56.48000     0.82500   0.
    57.48000     0.77500   0.
    58.48000     0.76500   0.
    59.48000     0.79000   0.
    60.48000     0.80000   0.
    61.48000     0.80000   0.
    62.48500     0.80500   0.
    63.49000     0.81500   0.
    64.49000     0.81500   0.
    65.49000     0.81000   0.
    66.49000     0.82000   0.
    67.49000     0.84000   0.
    68.49000     0.86000   0.
    69.49000     0.88500   0.
    70.49000     0.95000   0.
    71.48500     1.05000   0.
    72.48000     1.15000   0.
    73.48000     1.24500   0.
    74.48000     1.31500   0.
    75.47500     1.37000   0.
    76.47000     1.43000   0.
    77.47000     1.48500   0.
    78.47000     1.46000   0.
    79.47000     1.36500   0.
    80.47000     1.34500   0.
    81.47000     1.39500   0.
    82.47000     1.39500   0.
    83.47000     1.34500   0.
    84.47000     1.33500   0.
    85.47000     1.36000   0.
    86.47000     1.38500   0.
    87.47000     1.41000   0.
    88.47000     1.40500   0.
    89.47000     1.38000   0.
    90.47000     1.39500   0.
    91.47000     1.44500   0.
    92.47000     1.47500   0.
    93.47000     1.48500   0.
    94.47000     1.49500   0.
    95.47500     1.50000   0.
    96.48000     1.51000   0.
    97.48000     1.53000   0.
    98.48000     1.54000   0.
    99.48000     1.54000   0.
   100.48000     1.56000   0.
   101.48000     1.59500   0.
   102.48000     1.60500   0.
   103.48000     1.59500   0.
   104.48000     1.60500   0.
   105.48000     1.63000   0.
   106.48000     1.66000   0.
   107.48000     1.69500   0.
   108.48000     1.72000   0.
   109.48500     1.74500   0.
   110.49000     1.78500   0.
   111.49000     1.83000   0.
   112.49000     1.84500   0.
   113.49000     1.83500   0.
   114.49000     1.83500   0.
   115.49000     1.84500   0.
   116.49000     1.85500   0.
   117.49000     1.86000   0.
   118.49000     1.84500   0.
   119.49000     1.82000   0.
   120.49000     1.83500   0.
   121.49000     1.88500   0.
   122.49000     1.93500   0.
   123.49000     1.99500   0.
   124.49000     2.08500   0.
   125.48500     2.19500   0.
   126.48000     2.29500   0.
   127.68746     2.34000   0.
   128.67523     2.34000   0.
   130.05439     2.34000   0.
    -3.37000    -5.00000   0.
    -0.11000    -4.96000   0.
     3.15000    -4.87500   0.
     6.41500    -4.82500   0.
     9.68000    -4.90500   0.
    12.94000    -5.06000   0.
    16.20000    -5.12500   0.
    19.46000    -5.09500   0.
    22.72000    -5.04000   0.
    25.98000    -4.96000   0.
    29.24500    -4.88000   0.
    32.51000    -4.79500   0.
    35.77000    -4.66500   0.
    39.03000    -4.53000   0.
    42.29000    -4.34500   0.
    45.55000    -4.14000   0.
    48.81000    -4.09000   0.
    52.07000    -4.10500   0.
    55.33500    -4.14500   0.
    58.60000    -4.20000   0.
[...]
POINT_DATA      2188
CELL_DATA      4025
SCALARS Resistivity(ohm.m) double 1
LOOKUP_TABLE default
           432.31009           409.06140           442.00989           433.80637           434.76872           170.12333           433.45142           433.79308           433.73102           431.74849           377.56974           769.82777           433.81283           433.51899           438.37858           476.43772           435.44968           432.42384           372.35156           437.82144           432.86388          1054.94338           434.75287           423.03358           433.10272           306.35222           458.72549           279.08649           475.68603           210.88612           175.55988           438.24379           435.87579           433.08510           361.08820           727.71587           745.10445           688.87809           232.62920           432.79588           412.38933           598.62566          8243.49483          1191.86715           432.78581           433.72997           484.96522           366.36076           439.87656           380.63269           433.71590           435.47264           183.68080           252.32683           208.31024           672.24949           432.18726           766.19452           366.92434           843.17540           433.68905           432.44964           337.25070           749.34814           433.51914          2632.13810           288.67474           438.30923           733.21325           432.42714           466.19432           992.18977           446.11170           374.09836           594.98327           423.20408           405.61722           212.32600           987.40418           454.83535           839.95934          1122.80110           432.43256           310.73300          1023.40915           432.49580           227.13697           433.52900           201.01417           292.14698           463.12629           434.18476           433.87603           432.69597           248.45432           462.27084           433.26980          1026.53027           433.56861           388.87959           434.69556           442.81375           487.19963           502.45742          1104.97476           789.23815           434.14961           434.92518           439.18109           438.72569           386.20419           437.56341           432.78174           455.39271           433.71144           796.22140          3022.55731           433.70714           433.24007           684.38475           419.15119           437.67465           435.89759           210.88414           250.54860           442.37040           833.43377          1081.83202           717.75861           433.23153           692.32550           553.14431           452.68536           431.44434           240.86078           434.42017           440.67385           437.64112           450.15476           444.82455           982.46221           190.64229           303.73638           267.42067           197.53839           432.47886           235.31543           558.25388           231.37787           436.49066           611.72958          1094.59621           442.18709           444.65236           434.85103           499.23938           437.35845           522.51832          1568.91861           450.73120           521.34865           658.32643           433.25465           904.13101           922.29555           202.12198           435.88512           433.94273           433.04764           739.28092           919.29160           432.69112           432.49831          1374.21024           382.73723           377.58723           456.70312           478.82488           435.54222           433.20598           460.94575           433.91384           280.56595           743.10127           408.16785          1343.56301           767.68317           356.31216           787.87665          1382.12628           471.68103           718.06788           433.32230           459.69063           460.85209           462.96252           432.41194           432.71681           670.70036           434.44597           450.34701           154.82548           491.05032           441.47796          1609.39850           519.95003           161.20345           784.44873           442.31983           442.12089           462.51231           637.72972           545.47197           432.49415           432.95853           275.77818           447.03669           648.03285           601.98606           435.97065           493.81875           432.69726           371.65542           861.82626          1401.31972           436.21867           196.24772          1387.31071           460.28392           447.09660           439.81927           671.69223           433.49083           913.36227           457.70222           439.62330           703.59492           432.63855           432.42514           696.68453           432.88745           435.51509           487.83594           443.24659           283.41552           433.34730           466.88102           434.79736           438.26256           432.71524           407.24571           455.44438           369.35236           721.10941           719.75001           378.78749           433.10408          3553.80948           938.54881           440.72449           319.92244           555.28608           437.09577           432.49907           637.96106           432.58650           693.75371           437.63048           441.25097           465.79196           425.66335           498.21975           436.44071           628.02842           433.92823           463.03523           437.37010           585.62042           439.70778           435.13040           791.61607           433.86108           510.59358         13800.09662           449.81314           445.62809           606.30726           432.71494           432.96327           434.15162           379.45694           429.27105           853.22086           432.49582           518.54259           487.09708           476.12260           460.46877           481.05230           297.02870           304.65693          1537.63637           438.21652           550.13374           335.41993           432.53032           532.59135           478.37456           390.66472           437.04768           964.45135           494.55137           432.68510           621.03847           458.56355           427.66915           502.77761           246.06077           436.76356           931.06830           186.91612           432.54627           432.66741           422.11082           434.62461           438.30633           262.42131           433.16935           455.32089           433.54073           282.21713           775.17526           244.49993           968.89157           203.06524           433.47834           446.47070           432.51005           432.91883           432.82100          1022.01029           432.44331           432.54285           435.86423           978.59264           432.46778           293.35308           174.39678           439.77285           433.66682           215.49977           444.43803           432.72389           453.12760           438.84720           433.20196           432.60148           432.54534           812.66512           441.38542           211.88951           444.41748           462.60689           433.35337           497.40403           678.49957           435.41735           426.23042           434.36800           482.88488           993.27496           613.36556           356.13518           647.64061           922.29412           246.84769           433.51902           289.43600           373.84134           867.31903           654.76064           432.96638           501.12230           473.52503           433.35062           290.58439           809.85412           433.30820           448.08347         12645.16097           767.62267           298.73979           433.91908           763.39915           488.63667           432.41265           423.43789           449.21440           596.38497           432.98222           381.06662           453.26239           179.97423           285.75325           680.30492           660.09027           433.49216           281.63423           433.08971           433.47470           431.78899           433.35819           157.58119           433.62504           272.11116           432.47564           644.75587           549.73428           439.03085           537.40245           435.45208           434.00568           579.26169           260.06657           434.38201           446.14321           654.94359           470.67116           404.26345           690.40312           432.56304           408.54822           470.15647           473.90949           433.65280           787.22165           433.59368          1107.01944           249.99035           533.41880           431.34485           433.89772           417.09869           450.79217           435.34695           452.61420           452.44277           420.17755           412.84407           435.79407           442.21031           231.03023           212.27868           433.46039           439.95075           432.95440           192.81876           984.98084           434.67626           695.26480           504.50852           659.94251           433.13308           554.61377           616.43147           180.37856           262.04851           433.64682           156.86066           317.01717           369.01808           221.00783           432.76992           343.50824           498.07656           830.10714           441.44782           420.64586           431.56208           435.48936           703.36997           538.78677           240.18370           434.81528           309.16144           550.79357           432.83672           433.90102           587.35624          1051.07789           659.26743           433.06747           432.74018           664.73332           369.14234           825.37939           641.39430           774.71804           432.74381           432.45041           434.39841           413.26816           434.70102           813.87827           432.41572           446.03823           433.46645           445.53038           432.53766           433.50483           433.25981           432.41107           432.53766           432.62416           432.41562           274.17589           372.77899           468.53646           187.55710           470.46766           447.56616           387.16790           432.50509           432.47964           450.27144           247.90336           432.42936           433.32735           337.95185           436.76612           432.57289           413.67529          1080.34653           465.84191           432.41848           554.73198           471.63319           435.56395           432.69626           432.54874           272.38310           204.97544           328.15688           250.85948           361.16375           450.97841           437.21038           434.49989           453.19797           230.76786           344.70731           442.67339           510.67978           434.29430           432.22558           432.48208           443.23907           204.51222           929.09248           149.91307           435.76236           434.67364           213.80645           435.57892           350.14803           440.92810          1027.84610          1399.03650           420.31477           433.31646           432.51455           220.97133           432.85577           651.81491           185.52534           453.42126           434.47855           325.05079           433.39785           432.80020           513.74538           440.57172           452.44643           432.47765           432.41059           484.37909           483.63567           432.42994           432.50475           432.44781           482.06808           955.02345          1674.41345          1815.83098          1869.01484          1862.89115           435.16382           423.04923           434.44664           432.47702           433.42465           524.09201           432.87837           432.51888           432.99876           359.82334           245.39568           433.44091           432.53664           432.41008           432.41732           522.13355           432.42742           425.17682          1466.48003           432.48437           433.38495           433.46448           433.97830           550.41153           440.95906           214.74240           432.67573           432.44963           433.57725           497.14711          1029.31604           764.38255           432.89766          1253.24170           321.45817           432.45232           727.86289          1151.77636           608.79627           432.41031           432.42285           433.19025           433.73380           432.48293           432.55817           432.41007           318.78774           300.34028           436.97403           723.23272           360.46211           294.38724           570.20107          2528.41975           432.43856           327.90536           448.46060           444.96608           998.75105           432.67353           435.97069           280.02873           432.62788           290.68745           403.26885           648.54904           427.14036           467.80233           432.57562           455.87714           442.93219           432.44673           432.45376           230.49452           424.87919           460.68231           432.41694           439.40277           432.49680           278.40290           454.15099           432.46732           432.44820           432.43128           596.93916           439.40561           518.90219           433.12458           569.01804           820.48958           750.98658           514.79372           432.46362           889.76140           433.15378           699.77374           716.81842           449.34033           435.91204           432.73774           432.82791           432.43709           432.66735           432.92591           640.15221           625.34195           824.44840          1168.41202           158.52342           433.87484           432.59564           432.66562           432.60044           230.49960           432.96538           369.32837           437.88449           433.14649           327.25244           432.65017           192.61794           839.45930           600.75870           584.54948           417.21417           428.34174           830.48137           433.50738           164.70894           432.57692           432.40070           432.41054           455.55931           432.96301           432.44623           433.71675           444.97751           437.47833           623.39625          3436.47361           429.19491           432.58874           436.67072           434.10068           859.25459           436.90481           456.38660           403.05394           432.43894           553.51604           381.28459           434.28789           445.78800           356.04267           433.00375           544.78523          1122.16289           432.86793           430.44001           445.25720           436.57896           317.17633           432.46774           432.62872          1008.95008           432.74476           436.27524           433.34033           437.21124           439.42543           426.89970           433.30487           645.40872           436.46904           435.06277          1339.28697        135004.23325           433.02697           161.04347           438.53743           857.72973           409.38116          1328.43611           646.96107           784.03361           403.68039           434.38527           513.61750           432.46938           432.53076           260.80724           433.27983           341.76204           550.30060           238.92348           433.93853           470.27239           432.59163           597.32399           477.38364           432.74253           345.45870           308.47403           501.12566           434.25705           444.51707           484.51198           433.38985          1115.71368           497.20632           466.40507           431.80384           435.07601           288.02662           432.71168           333.36459           452.19952           442.54087           433.07963           508.63509           432.54232           442.90708           433.47412           432.58977           370.00722           432.50732           392.15608           324.59158           476.86772           682.84012           432.45339           434.29592           986.66694           451.36054           432.71804           415.00558           437.58428           306.59636           433.06973           397.49486           248.49913           432.64868           868.93328           432.51999           206.97015           774.45703           441.19086           432.71699           445.19154           216.51860           433.87982           433.38157           186.16759           432.62934           280.63155           446.06285           599.62879           432.43854           432.65041           434.33748          1076.68165           447.49051           765.29652           496.10185           394.89276           434.11170           473.45631           373.39129           452.53116           433.40526           789.26582           434.54850           449.73867          1055.63508           318.25191           567.98321           432.43188           432.47741           433.04109           441.93362           472.67278           437.73031           760.41681           440.59848           450.34355           432.51469           361.15901           342.63494           432.45248           437.07945           899.25807           432.41106           441.10918           435.58749           432.52125           432.44344           435.73217           444.05315           694.95640           403.60826           435.40099           462.83296           293.25441           258.26226           478.83376           432.76749           429.50479           711.93391           433.36900           682.44784           432.47247           570.80887           432.53665           433.72444          1486.01188           432.44797           547.68994           427.30027           432.58488           267.95599           432.92193           432.81141           601.60824           433.19814           433.97055           433.91361           439.43866           628.48851           764.46966           432.63283           743.88601           440.28505          1771.08419          1976.22918          1938.32027           527.90242           882.44488           443.11880           432.45165           433.40900           622.37250           433.02437           511.71033           434.79995           432.56539           439.51462           510.86338           451.63228           432.83556           432.58349           311.13309           433.45941          1582.89926           438.18756           432.80539           432.72288           433.03775           433.44354           437.12838           432.47809           648.34220           847.37998           432.72277           432.43858           668.48136           433.08408           645.68797           498.10576           432.44060           432.40199           432.28005           432.79077           240.13731           292.25794           433.23210           447.35717           433.92903           615.67092           431.21378           433.91836           433.17781           436.71624           470.95445           432.42186           476.76311           433.73184          1278.24542           432.91137           861.47507           193.98130           163.74355           201.72982           257.56453           432.41166           647.14734           287.30962           616.01592           432.41309           200.83583  