# vtk DataFile Version 3.0
Output from R2
ASCII
DATASET UNSTRUCTURED_GRID
POINTS       2188 double
    -5.00000     0.00000   0.
     0.00000     0.00000   0.
     1.00000     0.05000   0.
     2.00000     0.10000   0.
     3.00000     0.12000   0.
     4.00000     0.14000   0.
     5.00000     0.18000   0.
     6.00000     0.22000   0.
     7.00000     0.20000   0.
     8.00000     0.18000   0.
     9.00000     0.11000   0.
    10.00000     0.05000   0.
    11.00000     0.02000   0.
    12.00000    -0.01000   0.
    13.00000    -0.06000   0.
    14.00000    -0.11000   0.
    15.00000    -0.15000   0.
    16.00000    -0.19000   0.
    17.00000    -0.15000   0.
    18.00000    -0.11000   0.
    19.00000    -0.05000   0.
    20.00000     0.00000   0.
    21.00000    -0.07000   0.
    22.00000    -0.13000   0.
    23.00000    -0.08000   0.
    24.00000    -0.03000   0.
    25.00000     0.03000   0.
    26.00000     0.09000   0.
    27.00000     0.09000   0.
    28.00000     0.09000   0.
    29.00000     0.12000   0.
    30.00000     0.15000   0.
    31.00000     0.16000   0.
    32.00000     0.16000   0.
    33.00000     0.21000   0.
    34.00000     0.26000   0.
    35.00000     0.24000   0.
    36.00000     0.22000   0.
    37.00000     0.35000   0.
    37.99000     0.48000   0.
    38.99000     0.48000   0.
    39.99000     0.48000   0.
    40.99000     0.55000   0.
    41.99000     0.62000   0.
    42.98000     0.73000   0.
    43.98000     0.78000   0.
    44.98000     0.83000   0.
    45.98000     0.88000   0.
    46.98000     0.93000   0.
    47.98000     0.98000   0.
    48.98000     0.94000   0.
    49.98000     0.90000   0.
    50.98000     0.86000   0.
    51.98000     0.82000   0.
    52.98000     0.88000   0.
    53.98000     0.93000   0.
    54.98000     0.89000   0.
    55.98000     0.85000   0.
    56.98000     0.80000   0.
    57.98000     0.75000   0.
    58.98000     0.78000   0.
    59.98000     0.80000   0.
    60.98000     0.80000   0.
    61.98000     0.80000   0.
    62.99000     0.81000   0.
    63.99000     0.82000   0.
    64.99000     0.81000   0.
    65.99000     0.81000   0.
    66.99000     0.83000   0.
    67.99000     0.85000   0.
    68.99000     0.87000   0.
    69.99000     0.90000   0.
    70.99000     1.00000   0.
    71.98000     1.10000   0.
    72.98000     1.20000   0.
    73.98000     1.29000   0.
    74.98000     1.34000   0.
    75.97000     1.40000   0.
    76.97000     1.46000   0.
    77.97000     1.51000   0.
    78.97000     1.41000   0.
    79.97000     1.32000   0.
    80.97000     1.37000   0.
    81.97000     1.42000   0.
    82.97000     1.37000   0.
    83.97000     1.32000   0.
    84.97000     1.35000   0.
    85.97000     1.37000   0.
    86.97000     1.40000   0.
    87.97000     1.42000   0.
    88.97000     1.39000   0.
    89.97000     1.37000   0.
    90.97000     1.42000   0.
    91.97000     1.47000   0.
    92.97000     1.48000   0.
    93.97000     1.49000   0.
    94.97000     1.50000   0.
    95.98000     1.50000   0.
    96.98000     1.52000   0.
    97.98000     1.54000   0.
    98.98000     1.54000   0.
    99.98000     1.54000   0.
   100.98000     1.58000   0.
   101.98000     1.61000   0.
   102.98000     1.60000   0.
   103.98000     1.59000   0.
   104.98000     1.62000   0.
   105.98000     1.64000   0.
   106.98000     1.68000   0.
   107.98000     1.71000   0.
   108.98000     1.73000   0.
   109.99000     1.76000   0.
   110.99000     1.81000   0.
   111.99000     1.85000   0.
   112.99000     1.84000   0.
   113.99000     1.83000   0.
   114.99000     1.84000   0.
   115.99000     1.85000   0.
   116.99000     1.86000   0.
   117.99000     1.86000   0.
   118.99000     1.83000   0.
   119.99000     1.81000   0.
   120.99000     1.86000   0.
   121.99000     1.91000   0.
   122.99000     1.96000   0.
   123.99000     2.03000   0.
   124.99000     2.14000   0.
   125.98000     2.25000   0.
   126.98000     2.34000   0.
   131.98000     2.34000   0.
    -5.00000    -5.00000   0.
    -1.74000    -5.00000   0.
     1.52000    -4.92000   0.
     4.78000    -4.83000   0.
     8.05000    -4.82000   0.
    11.31000    -4.99000   0.
    14.57000    -5.13000   0.
    17.83000    -5.12000   0.
    21.09000    -5.07000   0.
    24.35000    -5.01000   0.
    27.61000    -4.91000   0.
    30.88000    -4.85000   0.
    34.14000    -4.74000   0.
    37.40000    -4.59000   0.
    40.66000    -4.47000   0.
    43.92000    -4.22000   0.
    47.18000    -4.06000   0.
    50.44000    -4.12000   0.
    53.70000    -4.09000   0.
    56.97000    -4.20000   0.
    60.23000    -4.20000   0.
    63.49000    -4.18000   0.
    66.75000    -4.17000   0.
    70.01000    -4.10000   0.
    73.27000    -3.77000   0.
    76.53000    -3.57000   0.
    79.79000    -3.66000   0.
    83.06000    -3.64000   0.
    86.32000    -3.62000   0.
    89.58000    -3.62000   0.
    92.84000    -3.52000   0.
    96.10000    -3.50000   0.
    99.36000    -3.46000   0.
   102.62000    -3.40000   0.
   105.89000    -3.36000   0.
   109.15000    -3.26000   0.
   112.41000    -3.16000   0.
   115.67000    -3.15000   0.
   118.93000    -3.17000   0.
   122.19000    -3.08000   0.
   125.45000    -2.81000   0.
   128.71000    -2.66000   0.
   131.98000    -2.66000   0.
  -639.88000     0.00000   0.
  -639.88000  -385.93000   0.
   766.86000     2.34000   0.
   766.86000  -385.93000   0.
    -3.07439     0.00000   0.
    -1.69523     0.00000   0.
    -0.70746     0.00000   0.
     0.50000     0.02500   0.
     1.50000     0.07500   0.
     2.50000     0.11000   0.
     3.50000     0.13000   0.
     4.50000     0.16000   0.
     5.50000     0.20000   0.
     6.50000     0.21000   0.
     7.50000     0.19000   0.
     8.50000     0.14500   0.
     9.50000     0.08000   0.
    10.50000     0.03500   0.
    11.50000     0.00500   0.
    12.50000    -0.03500   0.
    13.50000    -0.08500   0.
    14.50000    -0.13000   0.
    15.50000    -0.17000   0.
    16.50000    -0.17000   0.
    17.50000    -0.13000   0.
    18.50000    -0.08000   0.
    19.50000    -0.02500   0.
    20.50000    -0.03500   0.
    21.50000    -0.10000   0.
    22.50000    -0.10500   0.
    23.50000    -0.05500   0.
    24.50000     0.00000   0.
    25.50000     0.06000   0.
    26.50000     0.09000   0.
    27.50000     0.09000   0.
    28.50000     0.10500   0.
    29.50000     0.13500   0.
    30.50000     0.15500   0.
    31.50000     0.16000   0.
    32.50000     0.18500   0.
    33.50000     0.23500   0.
    34.50000     0.25000   0.
    35.50000     0.23000   0.
    36.50000     0.28500   0.
    37.49500     0.41500   0.
    38.49000     0.48000   0.
    39.49000     0.48000   0.
    40.49000     0.51500   0.
    41.49000     0.58500   0.
    42.48500     0.67500   0.
    43.48000     0.75500   0.
    44.48000     0.80500   0.
    45.48000     0.85500   0.
    46.48000     0.90500   0.
    47.48000     0.95500   0.
    48.48000     0.96000   0.
    49.48000     0.92000   0.
    50.48000     0.88000   0.
    51.48000     0.84000   0.
    52.48000     0.85000   0.
    53.48000     0.90500   0.
    54.48000     0.91000   0.
    55.48000     0.87000   0.
    56.48000     0.82500   0.
    57.48000     0.77500   0.
    58.48000     0.76500   0.
    59.48000     0.79000   0.
    60.48000     0.80000   0.
    61.48000     0.80000   0.
    62.48500     0.80500   0.
    63.49000     0.81500   0.
    64.49000     0.81500   0.
    65.49000     0.81000   0.
    66.49000     0.82000   0.
    67.49000     0.84000   0.
    68.49000     0.86000   0.
    69.49000     0.88500   0.
    70.49000     0.95000   0.
    71.48500     1.05000   0.
    72.48000     1.15000   0.
    73.48000     1.24500   0.
    74.48000     1.31500   0.
    75.47500     1.37000   0.
    76.47000     1.43000   0.
    77.47000     1.48500   0.
    78.47000     1.46000   0.
    79.47000     1.36500   0.
    80.47000     1.34500   0.
    81.47000     1.39500   0.
    82.47000     1.39500   0.
    83.47000     1.34500   0.
    84.47000     1.33500   0.
    85.47000     1.36000   0.
    86.47000     1.38500   0.
    87.47000     1.41000   0.
    88.47000     1.40500   0.
    89.47000     1.38000   0.
    90.47000     1.39500   0.
    91.47000     1.44500   0.
    92.47000     1.47500   0.
    93.47000     1.48500   0.
    94.47000     1.49500   0.
    95.47500     1.50000   0.
    96.48000     1.51000   0.
    97.48000     1.53000   0.
    98.48000     1.54000   0.
    99.48000     1.54000   0.
   100.48000     1.56000   0.
   101.48000     1.59500   0.
   102.48000     1.60500   0.
   103.48000     1.59500   0.
   104.48000     1.60500   0.
   105.48000     1.63000   0.
   106.48000     1.66000   0.
   107.48000     1.69500   0.
   108.48000     1.72000   0.
   109.48500     1.74500   0.
   110.49000     1.78500   0.
   111.49000     1.83000   0.
   112.49000     1.84500   0.
   113.49000     1.83500   0.
   114.49000     1.83500   0.
   115.49000     1.84500   0.
   116.49000     1.85500   0.
   117.49000     1.86000   0.
   118.49000     1.84500   0.
   119.49000     1.82000   0.
   120.49000     1.83500   0.
   121.49000     1.88500   0.
   122.49000     1.93500   0.
   123.49000     1.99500   0.
   124.49000     2.08500   0.
   125.48500     2.19500   0.
   126.48000     2.29500   0.
   127.68746     2.34000   0.
   128.67523     2.34000   0.
   130.05439     2.34000   0.
    -3.37000    -5.00000   0.
    -0.11000    -4.96000   0.
     3.15000    -4.87500   0.
     6.41500    -4.82500   0.
     9.68000    -4.90500   0.
    12.94000    -5.06000   0.
    16.20000    -5.12500   0.
    19.46000    -5.09500   0.
    22.72000    -5.04000   0.
    25.98000    -4.96000   0.
    29.24500    -4.88000   0.
    32.51000    -4.79500   0.
    35.77000    -4.66500   0.
    39.03000    -4.53000   0.
    42.29000    -4.34500   0.
    45.55000    -4.14000   0.
    48.81000    -4.09000   0.
    52.07000    -4.10500   0.
    55.33500    -4.14500   0.
    58.60000    -4.20000   0.
[...]
POINT_DATA      2188
CELL_DATA      4025
SCALARS Resistivity(ohm.m) double 1
LOOKUP_TABLE default
           427.11725           464.32171           443.65129           434.15834           434.96285           300.86284           433.74491           434.17773           433.66171           425.09522           353.72032           616.66018           434.17096           433.43566           437.81562           478.33239           436.33973           432.43185           350.74152           436.52957           432.84501           651.44516           426.43782           406.51024           433.31596           368.68707           483.64486           272.13502           487.53291           192.54678           309.18953           438.35391           436.87839           433.19317           310.93318           539.77846           602.35666           591.47007           219.42679           432.77854           389.21984           572.90248          9171.07203           745.33522           432.89946           434.07775           490.21921           313.50440           440.28192           362.27400           433.63706           425.76670           308.65477           212.89578           306.73633           593.33479           425.04712           566.26156           347.58591           523.78514           434.01335           432.47621           426.90508           384.12548           433.44813          4423.13795           239.78240           440.46542           642.00933           432.44234           473.73398           750.48427           353.16164           356.24566           334.72361           405.71127           500.61251           310.28763           701.94547           473.41095           481.54045           745.01444           432.45527           272.22083           929.90091           432.50849           200.31644           431.94462           202.99589           299.88675           397.76503           434.59117           433.98939           432.70059           210.92692           462.23877           433.49834           567.40670           433.79896           478.54754           435.37890           442.23446           484.40203           497.42568           941.90009           576.15909           434.28891           435.14247           439.44315           437.05529           365.50914           439.06059           432.89636           425.21801           434.02912           711.18308          4212.68721           432.42303           433.50099           441.30432           374.61500           438.05102           436.29491           256.73449           215.00131           443.24465           589.67034           663.56081           639.75443           433.30848           589.18102           388.75134           454.98817           423.71643           209.09604           434.92320           441.98369           438.28565           453.90420           446.72609           649.90834           201.77596           260.80269           256.86677           198.53184           432.48436           351.14150           545.94741           211.39246           436.63250           555.71938           707.66339           444.23978           445.05274           435.00823           466.69845           437.77625           388.37782           831.82696           458.46879           374.67698           568.17938           433.43215           553.12553           746.47267           264.63880           436.75201           434.31407           433.18152           649.40449           628.16833           432.71449           432.53527          1070.09303           260.33610           362.25931           334.48484           413.16656           436.04425           433.41052           460.99874           434.29390           253.15467           607.66117           387.10354           729.88169           709.55785           381.44582           731.19381           752.06806           353.04022           644.26000           433.36683           462.93546           375.73443           490.19120           432.42615           432.73939          1060.49683           435.02820           503.89384           268.10645           529.66214           442.09842          1079.44382           463.90891           200.94437           604.89977           443.61860           443.25717           474.39017           639.80430           633.11743           432.53514           433.12805           226.17060           448.64594           569.41682           464.75518           436.58696           499.47663           432.74229           345.58839           631.55743          1025.02648           435.55851           334.82368          2068.31072           461.00286           444.71081           441.24748           569.07113           433.78676           643.67534           467.85515           440.03762           477.21557           432.71420           432.43470           636.43071           432.92418           436.25275           483.49294           447.17513           390.00589           433.64659           485.68362           435.48471           439.11598           432.78129           351.93743           456.66618           354.83393           664.62549           605.66274           407.27886           433.03017          5687.21965           820.64344           441.36984           281.50472           574.79750           436.66589           432.54346           620.39879           432.64677           614.20119           438.07644           442.73679           466.66098           347.78639           591.56389           437.01566           632.25874           434.17627           457.95918           438.26326           548.10425           439.67698           435.33779           975.56181           434.16773           523.99196          9854.53122           454.62489           447.96224           616.41882           432.73440           433.08063           434.29767           358.98590           418.32819           706.60765           432.52448           516.28863           488.29678           430.72594           470.80722           456.26644           282.37019           285.43925           945.78510           438.72804           575.42439           427.68737           432.59471           546.97396           495.00378           370.26974           438.79268          1309.02509           563.97496           432.78701           551.58148           449.01477           414.23532           499.53701           206.33815           438.19056           751.16102           280.44346           432.60470           432.70455           333.40138           435.08773           438.75792           222.15249           432.97678           465.13829           433.57015           228.31826           627.01387           262.43955           733.62506           192.04801           433.72046           451.20001           432.56066           432.95462           432.89239           653.64168           432.46072           432.59279           436.29504           631.24440           432.47685           409.31397           198.22539           261.68125           433.66682           270.32746           446.60067           432.79164           445.23869           439.12538           433.02558           432.65580           432.54465          1457.93080           444.08577           311.12175           429.11478           472.55296           433.25530           487.88362           462.22867           435.02149           375.79348           434.57424           483.99200           653.46918           338.63506           299.89289           578.09101          1070.32273           221.98812           429.57769           277.69406           457.51884           541.84858           619.93404           433.06016           391.95864           475.30052           433.46371           280.69048           646.79546           428.04062           450.40462         11037.21218           707.05921           275.23763           433.95433           555.14998           368.33098           432.42784           345.24763           453.81895           858.07460           432.95532           358.52964           453.69114           183.91116           254.27636           623.58465           441.59563           433.71948           243.41565           432.94130           433.71218           464.97222           433.58407           192.81345           432.63547           264.56595           432.49069           647.08272           360.39316           434.00659           541.10963           435.56607           434.53737           576.51235           228.88496           434.88696           446.78840           644.13153           483.23992           444.03358           631.42387           432.63180           386.33751           480.66412           474.14967           433.12431           693.79302           432.84781          1310.09243           271.35755           549.92614           507.86475           434.26732           397.86933           451.68945           435.69686           460.74971           453.77219           400.31865           392.67773           435.99949           442.75055           314.91911           196.43189           432.72885           440.62247           433.04332           271.28375           710.68059           435.25618           584.10979           538.75150           442.81937           433.10605           675.35951           913.38427           187.54809           380.88696           433.75375           247.85624           368.23344           448.38743           209.99115           432.84970           352.01813           479.35815           715.23216           437.90076           476.06388           422.85460           436.48304           677.31607           633.02723           225.34067           434.41578           219.94027           526.06537           428.95894           430.95029           533.49202          2061.05054          1027.76615           433.21530           432.87157           440.15105           349.32061           716.97283           608.89891           634.84036           432.73161           432.50451           435.07775           356.33853           435.43241           723.65526           432.43678           394.13692           432.91121           446.31300           432.61584           433.72526           433.15248           432.42367           432.55213           432.64689           432.43472           298.89657           365.31563           426.39286           240.17782           469.64448           438.42873           363.84342           432.54958           432.53159           448.36646           285.28036           432.44781           433.55774           316.74290           436.93642           432.57364           391.92746          1448.68077           466.03466           432.47033           630.84550           495.88052           435.83739           432.76860           432.58919           397.49985           202.41855           306.24751           347.12381           297.73507           456.21217           437.45329           434.61721           455.93563           199.58730           377.27406           446.32891           590.46251           434.12453           507.99403           432.53756           446.11629           206.33441           523.21245           183.54501           430.08286           433.71457           213.33189           434.49965           327.89052           441.47696           834.40574          1065.76041           402.63763           433.52731           432.53852           215.11763           432.94199           524.48357           270.81854           457.98673           433.87254           282.65900           433.44136           432.83837           514.27961           438.97162           459.58511           432.51784           432.42213           554.94503           539.85192           432.45064           432.56567           432.46711           551.44395           727.11284          1181.62816           982.80814          1082.46212          1155.14006           435.35229           406.79884           434.83017           432.49686           431.46001           413.52230           432.86606           432.51942           432.98188           365.73994           216.85160           410.63077           432.60006           432.42049           432.46823           366.89789           432.46666           410.66413           833.29579           432.51689           433.28748           433.75538           434.47263           573.74348           443.68609           256.95872           432.77912           432.47267           433.92955           583.01126          1670.01789           679.44707           432.88818           732.99942           305.72555           432.48216           498.72770           691.00005           475.96133           432.42156           432.42928           433.41980           433.29881           432.49630           432.62349           432.42082           299.71975           266.77543           437.37253           588.87860           327.44707           347.97649           587.35286          3509.31207           432.47267           287.45306           449.85442           450.76877           654.39188           432.72060           437.21637           242.10411           432.68226           267.66981           327.32091           608.29673           338.84875           472.65273           432.63845           462.89989           446.14574           432.49247           432.50609           339.52069           409.37261           492.26581           432.43682           441.36688           432.56324           331.34116           458.26827           432.53298           432.47385           432.44857           601.72908           441.71510           648.24135           432.94969           668.94596           563.75286           588.80272           505.41628           432.51268           630.55986           433.19663           655.02909           662.76859           455.20476           434.41725           432.77663           432.89309           432.47007           432.66930           432.97126           596.09740           630.11060          1193.14226           671.55023           180.14677           431.54197           432.65317           432.69597           432.60341           263.51866           432.94857           326.33727           438.57273           433.25302           390.49888           432.70877           214.68738           550.61614           599.88438           548.04551           397.11695           417.04570           733.14973           432.56490           181.65196           432.65437           432.42223           432.42171           459.55404           432.89374           432.47008           433.86162           446.08526           423.63496           574.46930          4984.37370           418.34370           432.64342           438.38033           434.21996           655.82168           437.17734           480.86010           381.51671           432.45064           576.17390           403.83415           434.39669           451.82833           404.34484           433.03956           445.40780           661.36657           432.82078           422.04224           454.07493           435.01469           259.17923           432.49530           428.57786           627.71402           432.73596           436.46907           431.53676           438.30337           442.64719           413.93872           432.90137           477.37789           437.50952           435.33134           847.04841         24897.33873           432.92651           205.42377           439.37610           656.39798           321.40165           892.79094           591.01056           610.76666           393.78797           435.02521           507.70859           432.48546           432.56163           228.07209           433.41285           268.71040           473.95811           368.74936           434.16929           479.71730           432.66287           548.23621           512.28358           432.77605           256.95809           290.03878           507.21255           434.21728           445.75024           350.33562           433.39711           738.50748           557.14998           507.44551           425.80485           435.09426           260.24988           432.74502           314.76905           453.30564           443.17173           430.41049           514.36293           432.60460           445.51396           432.29161           432.62532           294.18796           432.54416           348.40115           284.07610           496.58544           849.92011           432.46570           434.71136           841.10684           451.85027           432.74480           373.60282           438.89498           291.83265           433.07958           375.69685           324.66140           432.70508           868.33723           432.52403           193.65794           706.86300           445.19499           432.70606           408.61921           315.29498           433.77808           433.55576           296.07863           432.63768           340.55905           448.26339           600.21352           432.44790           432.69120           434.45505           869.80404           458.76279           751.08295           506.20582           355.48560           434.45252           451.58791           339.96782           453.81791           432.85156           650.62560           434.67554           464.51768           727.80862           334.11530           527.78581           432.47972           432.51027           433.10981           447.23363           490.71198           439.59966           696.11465           444.74838           404.63769           432.57276           321.96260           332.97886           432.48345           438.52912           846.19209           432.42327           443.75409           436.18469           432.56058           432.46409           436.87419           444.47434           558.10914           330.35742           435.81555           464.32054           267.35652           334.00611           499.87198           432.83948           419.66189           616.29147           432.98093           605.04624           432.50771           534.56361           432.57507           433.93891          1129.85647           432.46778           724.91691           414.40939           432.64051           280.70922           432.86469           432.85673           546.70562           433.24596           434.01158           434.04556           441.65003           470.85310          1308.05848           432.67219           604.01996           430.97521          1209.42635          1187.05316          1089.43299           508.11212           780.75736           448.09345           432.47831           433.49659           599.19149           433.09080           582.96543           434.86399           432.58159           423.00111           426.75819           396.04739           432.99460           432.64918           347.13450           433.63789           912.43383           439.39859           432.77594           432.76669           433.12892           433.66244           437.42647           432.47954           523.36904           582.90816           432.75632           432.47572           503.79694           433.14156           672.62710           490.99063           432.48003           432.42471           427.30345           432.79682           217.00120           391.43759           431.03766           448.28197           432.59104           624.92748           424.01573           433.91305           433.20613           437.22445           487.83371           432.42590           475.03190           433.00256           771.51143           429.64190           675.60057           242.72116           267.50396           271.66397           244.97474           432.42519           643.05987           388.63625           724.51177           432.42786           300.33094  