# vtk DataFile Version 3.0
Output from R2
ASCII
DATASET UNSTRUCTURED_GRID
POINTS       2188 double
    -5.00000     0.00000   0.
     0.00000     0.00000   0.
     1.00000     0.05000   0.
     2.00000     0.10000   0.
     3.00000     0.12000   0.
     4.00000     0.14000   0.
     5.00000     0.18000   0.
     6.00000     0.22000   0.
     7.00000     0.20000   0.
     8.00000     0.18000   0.
     9.00000     0.11000   0.
    10.00000     0.05000   0.
    11.00000     0.02000   0.
    12.00000    -0.01000   0.
    13.00000    -0.06000   0.
    14.00000    -0.11000   0.
    15.00000    -0.15000   0.
    16.00000    -0.19000   0.
    17.00000    -0.15000   0.
    18.00000    -0.11000   0.
    19.00000    -0.05000   0.
    20.00000     0.00000   0.
    21.00000    -0.07000   0.
    22.00000    -0.13000   0.
    23.00000    -0.08000   0.
    24.00000    -0.03000   0.
    25.00000     0.03000   0.
    26.00000     0.09000   0.
    27.00000     0.09000   0.
    28.00000     0.09000   0.
    29.00000     0.12000   0.
    30.00000     0.15000   0.
    31.00000     0.16000   0.
    32.00000     0.16000   0.
    33.00000     0.21000   0.
    34.00000     0.26000   0.
    35.00000     0.24000   0.
    36.00000     0.22000   0.
    37.00000     0.35000   0.
    37.99000     0.48000   0.
    38.99000     0.48000   0.
    39.99000     0.48000   0.
    40.99000     0.55000   0.
    41.99000     0.62000   0.
    42.98000     0.73000   0.
    43.98000     0.78000   0.
    44.98000     0.83000   0.
    45.98000     0.88000   0.
    46.98000     0.93000   0.
    47.98000     0.98000   0.
    48.98000     0.94000   0.
    49.98000     0.90000   0.
    50.98000     0.86000   0.
    51.98000     0.82000   0.
    52.98000     0.88000   0.
    53.98000     0.93000   0.
    54.98000     0.89000   0.
    55.98000     0.85000   0.
    56.98000     0.80000   0.
    57.98000     0.75000   0.
    58.98000     0.78000   0.
    59.98000     0.80000   0.
    60.98000     0.80000   0.
    61.98000     0.80000   0.
    62.99000     0.81000   0.
    63.99000     0.82000   0.
    64.99000     0.81000   0.
    65.99000     0.81000   0.
    66.99000     0.83000   0.
    67.99000     0.85000   0.
    68.99000     0.87000   0.
    69.99000     0.90000   0.
    70.99000     1.00000   0.
    71.98000     1.10000   0.
    72.98000     1.20000   0.
    73.98000     1.29000   0.
    74.98000     1.34000   0.
    75.97000     1.40000   0.
    76.97000     1.46000   0.
    77.97000     1.51000   0.
    78.97000     1.41000   0.
    79.97000     1.32000   0.
    80.97000     1.37000   0.
    81.97000     1.42000   0.
    82.97000     1.37000   0.
    83.97000     1.32000   0.
    84.97000     1.35000   0.
    85.97000     1.37000   0.
    86.97000     1.40000   0.
    87.97000     1.42000   0.
    88.97000     1.39000   0.
    89.97000     1.37000   0.
    90.97000     1.42000   0.
    91.97000     1.47000   0.
    92.97000     1.48000   0.
    93.97000     1.49000   0.
    94.97000     1.50000   0.
    95.98000     1.50000   0.
    96.98000     1.52000   0.
    97.98000     1.54000   0.
    98.98000     1.54000   0.
    99.98000     1.54000   0.
   100.98000     1.58000   0.
   101.98000     1.61000   0.
   102.98000     1.60000   0.
   103.98000     1.59000   0.
   104.98000     1.62000   0.
   105.98000     1.64000   0.
   106.98000     1.68000   0.
   107.98000     1.71000   0.
   108.98000     1.73000   0.
   109.99000     1.76000   0.
   110.99000     1.81000   0.
   111.99000     1.85000   0.
   112.99000     1.84000   0.
   113.99000     1.83000   0.
   114.99000     1.84000   0.
   115.99000     1.85000   0.
   116.99000     1.86000   0.
   117.99000     1.86000   0.
   118.99000     1.83000   0.
   119.99000     1.81000   0.
   120.99000     1.86000   0.
   121.99000     1.91000   0.
   122.99000     1.96000   0.
   123.99000     2.03000   0.
   124.99000     2.14000   0.
   125.98000     2.25000   0.
   126.98000     2.34000   0.
   131.98000     2.34000   0.
    -5.00000    -5.00000   0.
    -1.74000    -5.00000   0.
     1.52000    -4.92000   0.
     4.78000    -4.83000   0.
     8.05000    -4.82000   0.
    11.31000    -4.99000   0.
    14.57000    -5.13000   0.
    17.83000    -5.12000   0.
    21.09000    -5.07000   0.
    24.35000    -5.01000   0.
    27.61000    -4.91000   0.
    30.88000    -4.85000   0.
    34.14000    -4.74000   0.
    37.40000    -4.59000   0.
    40.66000    -4.47000   0.
    43.92000    -4.22000   0.
    47.18000    -4.06000   0.
    50.44000    -4.12000   0.
    53.70000    -4.09000   0.
    56.97000    -4.20000   0.
    60.23000    -4.20000   0.
    63.49000    -4.18000   0.
    66.75000    -4.17000   0.
    70.01000    -4.10000   0.
    73.27000    -3.77000   0.
    76.53000    -3.57000   0.
    79.79000    -3.66000   0.
    83.06000    -3.64000   0.
    86.32000    -3.62000   0.
    89.58000    -3.62000   0.
    92.84000    -3.52000   0.
    96.10000    -3.50000   0.
    99.36000    -3.46000   0.
   102.62000    -3.40000   0.
   105.89000    -3.36000   0.
   109.15000    -3.26000   0.
   112.41000    -3.16000   0.
   115.67000    -3.15000   0.
   118.93000    -3.17000   0.
   122.19000    -3.08000   0.
   125.45000    -2.81000   0.
   128.71000    -2.66000   0.
   131.98000    -2.66000   0.
  -639.88000     0.00000   0.
  -639.88000  -385.93000   0.
   766.86000     2.34000   0.
   766.86000  -385.93000   0.
    -3.07439     0.00000   0.
    -1.69523     0.00000   0.
    -0.70746     0.00000   0.
     0.50000     0.02500   0.
     1.50000     0.07500   0.
     2.50000     0.11000   0.
     3.50000     0.13000   0.
     4.50000     0.16000   0.
     5.50000     0.20000   0.
     6.50000     0.21000   0.
     7.50000     0.19000   0.
     8.50000     0.14500   0.
     9.50000     0.08000   0.
    10.50000     0.03500   0.
    11.50000     0.00500   0.
    12.50000    -0.03500   0.
    13.50000    -0.08500   0.
    14.50000    -0.13000   0.
    15.50000    -0.17000   0.
    16.50000    -0.17000   0.
    17.50000    -0.13000   0.
    18.50000    -0.08000   0.
    19.50000    -0.02500   0.
    20.50000    -0.03500   0.
    21.50000    -0.10000   0.
    22.50000    -0.10500   0.
    23.50000    -0.05500   0.
    24.50000     0.00000   0.
    25.50000     0.06000   0.
    26.50000     0.09000   0.
    27.50000     0.09000   0.
    28.50000     0.10500   0.
    29.50000     0.13500   0.
    30.50000     0.15500   0.
    31.50000     0.16000   0.
    32.50000     0.18500   0.
    33.50000     0.23500   0.
    34.50000     0.25000   0.
    35.50000     0.23000   0.
    36.50000     0.28500   0.
    37.49500     0.41500   0.
    38.49000     0.48000   0.
    39.49000     0.48000   0.
    40.49000     0.51500   0.
    41.49000     0.58500   0.
    42.48500     0.67500   0.
    43.48000     0.75500   0.
    44.48000     0.80500   0.
    45.48000     0.85500   0.
    46.48000     0.90500   0.
    47.48000     0.95500   0.
    48.48000     0.96000   0.
    49.48000     0.92000   0.
    50.48000     0.88000   0.
    51.48000     0.84000   0.
    52.48000     0.85000   0.
    53.48000     0.90500   0.
    54.48000     0.91000   0.
    55.48000     0.87000   0.
    56.48000     0.82500   0.
    57.48000     0.77500   0.
    58.48000     0.76500   0.
    59.48000     0.79000   0.
    60.48000     0.80000   0.
    61.48000     0.80000   0.
    62.48500     0.80500   0.
    63.49000     0.81500   0.
    64.49000     0.81500   0.
    65.49000     0.81000   0.
    66.49000     0.82000   0.
    67.49000     0.84000   0.
    68.49000     0.86000   0.
    69.49000     0.88500   0.
    70.49000     0.95000   0.
    71.48500     1.05000   0.
    72.48000     1.15000   0.
    73.48000     1.24500   0.
    74.48000     1.31500   0.
    75.47500     1.37000   0.
    76.47000     1.43000   0.
    77.47000     1.48500   0.
    78.47000     1.46000   0.
    79.47000     1.36500   0.
    80.47000     1.34500   0.
    81.47000     1.39500   0.
    82.47000     1.39500   0.
    83.47000     1.34500   0.
    84.47000     1.33500   0.
    85.47000     1.36000   0.
    86.47000     1.38500   0.
    87.47000     1.41000   0.
    88.47000     1.40500   0.
    89.47000     1.38000   0.
    90.47000     1.39500   0.
    91.47000     1.44500   0.
    92.47000     1.47500   0.
    93.47000     1.48500   0.
    94.47000     1.49500   0.
    95.47500     1.50000   0.
    96.48000     1.51000   0.
    97.48000     1.53000   0.
    98.48000     1.54000   0.
    99.48000     1.54000   0.
   100.48000     1.56000   0.
   101.48000     1.59500   0.
   102.48000     1.60500   0.
   103.48000     1.59500   0.
   104.48000     1.60500   0.
   105.48000     1.63000   0.
   106.48000     1.66000   0.
   107.48000     1.69500   0.
   108.48000     1.72000   0.
   109.48500     1.74500   0.
   110.49000     1.78500   0.
   111.49000     1.83000   0.
   112.49000     1.84500   0.
   113.49000     1.83500   0.
   114.49000     1.83500   0.
   115.49000     1.84500   0.
   116.49000     1.85500   0.
   117.49000     1.86000   0.
   118.49000     1.84500   0.
   119.49000     1.82000   0.
   120.49000     1.83500   0.
   121.49000     1.88500   0.
   122.49000     1.93500   0.
   123.49000     1.99500   0.
   124.49000     2.08500   0.
   125.48500     2.19500   0.
   126.48000     2.29500   0.
   127.68746     2.34000   0.
   128.67523     2.34000   0.
   130.05439     2.34000   0.
    -3.37000    -5.00000   0.
    -0.11000    -4.96000   0.
     3.15000    -4.87500   0.
     6.41500    -4.82500   0.
     9.68000    -4.90500   0.
    12.94000    -5.06000   0.
    16.20000    -5.12500   0.
    19.46000    -5.09500   0.
    22.72000    -5.04000   0.
    25.98000    -4.96000   0.
    29.24500    -4.88000   0.
    32.51000    -4.79500   0.
    35.77000    -4.66500   0.
    39.03000    -4.53000   0.
    42.29000    -4.34500   0.
    45.55000    -4.14000   0.
    48.81000    -4.09000   0.
    52.07000    -4.10500   0.
    55.33500    -4.14500   0.
    58.60000    -4.20000   0.
[...]
POINT_DATA      2188
CELL_DATA      4025
SCALARS Resistivity(ohm.m) double 1
LOOKUP_TABLE default
           431.40119           473.43106           436.58765           432.87910           433.23944           218.67283           432.78328           432.93231           433.08316           430.76047           375.40116           545.35709           432.85190           432.96269           435.74779           453.76568           433.55847           432.38593           369.24523           435.35879           432.62485           782.79093           432.16031           421.02438           432.62571           376.55592           445.99141           279.40162           454.44460           196.99298           226.30640           434.67436           433.77998           432.60518           355.82116           649.75438           541.27937           543.23838           214.31397           432.59342           410.23040           517.88468          2239.72158           822.15685           432.54395           432.83498           456.14921           359.18757           435.15053           375.57126           433.07016           432.48901           280.78998           305.45611           246.51540           513.50397           430.69989           662.69934           361.79029           633.66707           432.86139           432.39800           377.89867           551.19995           432.98111          1228.01013           341.28189           434.76679           548.40700           432.39175           450.09604           762.98333           404.90408           368.32064           460.78453           421.75756           492.07673           256.97358           754.10004           443.89922           645.00513           803.07414           432.39007           286.79798           815.98266           432.43001           212.80341           432.83306           188.04917           304.73241           443.57623           433.17959           432.95992           432.53052           230.81997           443.04479           432.69282           753.48553           432.78553           424.53396           433.25618           438.63076           453.12802           459.64704           693.80577           724.22008           433.05796           433.30037           434.99207           435.92982           382.40471           434.44967           432.52600           449.79379           432.85827           660.26940          1392.52551           432.98534           432.69334           541.80973           401.29660           434.32779           433.74618           234.47373           234.03652           436.67152           720.82107           757.67384           554.71094           432.69948           534.85703           469.92426           440.46099           430.29217           231.71763           433.11384           435.58280           434.38559           440.24809           437.54959           751.23305           185.18785           296.17837           270.91366           198.36749           432.42133           347.68475           495.77370           223.28931           433.92909           506.92720           794.55487           437.89960           439.83292           433.31942           481.39163           434.22823           454.18614           925.26711           441.61496           450.84007           516.07301           432.65930           677.57816           720.42759           243.60395           433.70957           432.95455           432.57394           545.25470           706.37761           432.52900           432.42414           965.79031           310.11024           370.80267           367.93721           424.21500           433.53529           432.61460           442.72403           432.91282           274.91978           652.81423           406.61874           799.18896           642.86941           374.61000           668.48082           861.58426           384.11114           542.63463           432.74165           446.19671           425.61782           448.41759           432.38488           432.53755           551.76600           433.13647           469.75558           205.89410           498.78973           437.59638          1042.26013           459.65720           184.89130           716.20080           436.08893           435.93973           448.32442           571.13001           693.37026           432.40600           432.57656           259.08437           438.22471           507.86663           631.51182           433.71489           461.49690           432.47028           370.11325           789.06460           978.46066           434.47616           314.45325           971.69437           445.82320           441.69693           435.54416           526.18690           432.71777           729.52622           444.25025           435.04821           562.51831           432.48199           432.38537           542.94077           432.54550           433.54370           452.87281           437.86161           330.16762           432.66282           450.89701           433.44771           434.65910           432.46233           397.02794           441.24656           361.83862           540.17236           666.61230           401.13364           432.75706          1382.88901           625.36158           435.48326           311.08438           534.04930           434.97873           432.40902           541.49809           432.46407           526.69477           434.55490           435.94518           448.17506           405.23997           467.34163           433.99145           561.57959           432.89792           453.46833           434.41115           498.44660           436.54449           433.42264           667.48959           433.04322           489.33414          2962.38339           440.50994           438.15159           555.63457           432.54368           432.52837           433.02923           374.61875           427.54452           672.39743           432.41962           467.23695           455.97058           458.71775           444.97672           465.89608           297.47107           303.87427           983.14624           434.56642           539.61050           431.77768           432.40477           646.56366           462.76713           387.62573           434.25796           763.80384           467.17871           432.49310           504.45161           449.99000           425.70255           460.93290           236.05933           434.11473           683.58442           236.98962           432.41088           432.46644           384.35534           433.17638           434.79902           252.29514           432.77974           444.28802           432.83187           266.50592           609.79136           248.31193           741.05431           188.48125           432.76459           438.92414           432.41884           432.56142           432.49436           751.03933           432.39507           432.42646           433.64797           721.89702           432.40792           446.02532           188.20115           350.37325           432.87504           256.21899           437.87696           432.46434           445.99814           434.80774           432.80230           432.43856           432.45812           613.09872           437.17697           247.96924           438.67637           451.37038           432.90418           480.57588           547.36567           434.02193           396.59760           433.08449           456.15355           733.24761           458.32867           332.76633           528.61759           866.51043           227.55819           432.32249           289.85002           411.57724           657.16366           542.76034           432.54996           422.69389           449.34664           432.74675           298.68151           793.87315           431.89619           439.75136          2678.51799           636.56669           296.17824           432.96743           641.15690           424.06781           432.38361           380.43471           440.69243           516.61224           432.69301           377.49563           439.98611           179.34053           275.72758           545.28149           535.35487           432.74850           253.03880           432.74714           432.72981           449.27837           432.71994           179.00352           432.96720           261.36191           432.40510           568.67918           463.05626           435.78927           486.55962           433.52633           432.98401           557.18725           255.26126           433.25553           437.41730           554.18403           452.20994           421.97464           700.52831           432.41239           407.10293           457.54490           448.76116           433.04311           565.95213           432.97962           946.49762           308.46024           505.55736           461.15767           433.01263           415.91908           439.08828           433.45039           441.82163           441.49859           417.95343           411.50961           433.72690           436.02328           303.97174           202.96267           432.90569           435.49848           432.55528           223.15708           768.61214           433.22337           526.47464           505.76682           536.22090           432.77056           506.47505           529.33441           185.77205           311.99782           432.87301           188.39847           346.57091           473.54889           204.92431           432.46573           361.35634           480.32327           573.12077           437.64603           563.46768           429.87598           433.63340           595.63793           671.93610           219.57159           433.68427           260.64693           483.90565           432.00972           432.79489           583.93342           703.79251           552.56821           432.56267           432.50032           529.93386           364.25953           729.14962           653.23287           665.63446           432.55809           432.39473           433.13225           401.75639           433.29073           573.18039           432.38411           432.38089           432.92568           437.44243           432.41450           432.76921           432.85170           432.38436           432.45072           432.49093           432.38343           291.35233           361.73333           453.35276           200.82844           445.79943           441.75615           384.00621           432.42399           432.40238           443.89192           274.07014           432.38761           432.66591           336.46997           434.04154           432.47280           412.44343           845.27541           445.26397           432.37155           655.74895           453.49377           433.53793           432.44535           432.43558           326.31279           201.71507           439.07856           298.25457           424.89887           443.77262           434.18154           433.19166           442.73344           220.06420           483.72939           437.80286           590.90741           433.38179           533.20078           432.40045           437.38317           204.79479           679.10622           170.06777           433.42313           433.56125           218.59846           434.04078           347.87652           435.51866           642.56678           891.89865           419.23558           432.65900           432.43340           212.46799           432.48676           584.73974           246.78436           441.08938           433.48010           321.80933           432.75641           432.52132           494.32809           437.12722           443.62034           432.40817           432.38411           459.92485           460.58157           432.39301           432.39787           432.39884           595.99592           607.34699           990.88856           968.85993          1015.77507          1038.72831           433.45902           422.04338           433.08911           432.40683           432.70558           551.22747           432.63467           432.44021           432.69588           441.94628           225.72531           428.85493           432.40684           432.38192           432.37316           441.59561           432.38281           424.21429           813.63456           432.41301           432.89973           432.76606           432.98977           518.11638           436.54479           243.40023           432.47973           432.39987           432.74577           467.44914           918.04263           651.24434           432.63748           735.74429           321.37881           432.40077           610.39100           731.38760           491.47020           432.38485           432.38516           432.61431           433.08383           432.42205           432.42487           432.38411           372.47911           295.20374           434.17759           536.98795           359.48295           347.65268           537.42606          1338.53968           432.38927           325.70619           439.63655           438.52087           700.13210           432.45974           433.87259           273.15019           432.43841           289.25270           386.82057           528.57424           376.58870           456.54602           432.45145           447.15818           437.14455           432.39477           432.38712           272.49481           423.84811           447.05208           432.38407           435.95818           432.40102           325.99167           441.09074           432.38786           432.39902           432.39018           584.07966           435.29266           478.02021           432.76063           517.89610           633.62700           626.70837           498.47038           432.40002           688.89946           432.66340           618.91665           541.43151           442.02720           434.18968           432.55432           432.50503           432.39254           432.52225           432.55906           516.04333           549.79647           858.48447           749.60644           173.52290           432.89935           432.42682           432.51387           432.49004           255.61680           432.67380           365.61749           435.28920           432.65429           361.08625           432.43876           209.55200           644.45102           525.49864           583.64839           416.07007           427.42964           804.65892           432.91279           176.23337           432.42498           432.38319           432.38091           447.43194           432.68355           432.39662           432.88943           436.96072           433.46964           504.35541          1456.14329           427.83760           432.42824           434.12649           433.03770           575.11919           434.05906           444.70686           401.17406           432.40175           513.19857           451.57423           433.12757           438.74380           472.45546           432.58973           611.25992           722.07069           432.63612           429.58204           438.56136           434.56866           296.82754           432.40780           431.87132           719.63603           432.56684           434.42694           432.69033           434.23943           435.40518           425.96043           432.84849           573.43687           433.96059           433.37133           870.79257          7941.49385           432.71991           172.18479           434.97538           709.94933           378.34800           907.03934           596.15455           648.00826           406.35451           433.16976           468.94447           432.41234           432.44400           237.60942           432.70806           321.65758           529.68942           350.13570           432.90541           449.43409           432.42555           493.10973           457.06169           432.48807           298.75444           307.92005           482.20565           433.35132           437.57621           404.27351           432.89759           780.90694           469.41665           450.18309           430.98926           433.78249           286.27370           432.53068           332.14732           439.77990           436.22638           432.39549           638.48025           432.41014           436.97225           432.86381           432.47481           324.39189           432.42288           382.09052           373.85647           458.52173           593.81993           432.40605           433.03979           632.08139           439.31030           432.48603           407.21588           434.43547           306.77527           432.72924           395.18706           279.49077           432.44931           756.17572           432.44286           192.83604           561.42176           436.30390           432.54590           434.44088           306.88035           433.14589           432.75323           274.19690           432.50391           317.99074           440.68790           565.24783           432.39630           432.46057           433.12423           729.08645           439.79008           662.14896           461.55479           390.51548           432.96345           460.28918           371.99482           445.47732           432.89379           624.76480           433.19221           441.02818           761.41851           335.64272           483.92788           432.38289           432.40792           432.60789           436.74006           456.64002           434.56461           645.79688           436.02406           436.86527           432.40685           358.76104           351.02994           432.40208           434.23446           752.97171           432.38309           436.39567           433.56040           432.43334           432.39949           433.81874           436.69556           689.38061           389.58935           433.49877           453.20091           291.30132           291.53876           461.95452           432.54867           428.61091           567.81320           432.87744           516.97434           432.40595           561.62516           432.44351           432.99540           909.23557           432.40414           492.86169           426.06691           432.42782           286.06690           432.65662           432.52239           593.94651           432.67384           432.98400           432.97427           435.81348           505.20810           602.49270           432.49404           548.79237           436.23150          1011.18818          1060.49767          1015.97204           470.57245           596.62037           437.33922           432.40047           432.74757           522.69457           432.59834           478.77131           433.29833           432.46310           434.78434           525.52979           435.80792           432.52931           432.42272           372.38359           432.87115           852.82217           435.36463           432.59739           432.47515           432.59844           432.83272           434.22322           432.41600           498.98135           651.41537           432.48569           432.39092           620.46584           432.62918           679.11376           459.61495           432.39382           432.37977           431.47952           432.58076           220.39107           331.58337           432.56550           437.84894           433.10078           547.68132           430.36531           433.16930           432.78316           434.63687           453.74379           432.38512           451.56704           433.06084           728.57284           432.18582           572.00209           251.40985           205.29722           225.72879           239.85404           432.38196           564.41326           392.81901           550.39613           432.38119           287.50567  