# vtk DataFile Version 3.0
Output from R2
ASCII
DATASET UNSTRUCTURED_GRID
POINTS       2188 double
    -5.00000     0.00000   0.
     0.00000     0.00000   0.
     1.00000     0.05000   0.
     2.00000     0.10000   0.
     3.00000     0.12000   0.
     4.00000     0.14000   0.
     5.00000     0.18000   0.
     6.00000     0.22000   0.
     7.00000     0.20000   0.
     8.00000     0.18000   0.
     9.00000     0.11000   0.
    10.00000     0.05000   0.
    11.00000     0.02000   0.
    12.00000    -0.01000   0.
    13.00000    -0.06000   0.
    14.00000    -0.11000   0.
    15.00000    -0.15000   0.
    16.00000    -0.19000   0.
    17.00000    -0.15000   0.
    18.00000    -0.11000   0.
    19.00000    -0.05000   0.
    20.00000     0.00000   0.
    21.00000    -0.07000   0.
    22.00000    -0.13000   0.
    23.00000    -0.08000   0.
    24.00000    -0.03000   0.
    25.00000     0.03000   0.
    26.00000     0.09000   0.
    27.00000     0.09000   0.
    28.00000     0.09000   0.
    29.00000     0.12000   0.
    30.00000     0.15000   0.
    31.00000     0.16000   0.
    32.00000     0.16000   0.
    33.00000     0.21000   0.
    34.00000     0.26000   0.
    35.00000     0.24000   0.
    36.00000     0.22000   0.
    37.00000     0.35000   0.
    37.99000     0.48000   0.
    38.99000     0.48000   0.
    39.99000     0.48000   0.
    40.99000     0.55000   0.
    41.99000     0.62000   0.
    42.98000     0.73000   0.
    43.98000     0.78000   0.
    44.98000     0.83000   0.
    45.98000     0.88000   0.
    46.98000     0.93000   0.
    47.98000     0.98000   0.
    48.98000     0.94000   0.
    49.98000     0.90000   0.
    50.98000     0.86000   0.
    51.98000     0.82000   0.
    52.98000     0.88000   0.
    53.98000     0.93000   0.
    54.98000     0.89000   0.
    55.98000     0.85000   0.
    56.98000     0.80000   0.
    57.98000     0.75000   0.
    58.98000     0.78000   0.
    59.98000     0.80000   0.
    60.98000     0.80000   0.
    61.98000     0.80000   0.
    62.99000     0.81000   0.
    63.99000     0.82000   0.
    64.99000     0.81000   0.
    65.99000     0.81000   0.
    66.99000     0.83000   0.
    67.99000     0.85000   0.
    68.99000     0.87000   0.
    69.99000     0.90000   0.
    70.99000     1.00000   0.
    71.98000     1.10000   0.
    72.98000     1.20000   0.
    73.98000     1.29000   0.
    74.98000     1.34000   0.
    75.97000     1.40000   0.
    76.97000     1.46000   0.
    77.97000     1.51000   0.
    78.97000     1.41000   0.
    79.97000     1.32000   0.
    80.97000     1.37000   0.
    81.97000     1.42000   0.
    82.97000     1.37000   0.
    83.97000     1.32000   0.
    84.97000     1.35000   0.
    85.97000     1.37000   0.
    86.97000     1.40000   0.
    87.97000     1.42000   0.
    88.97000     1.39000   0.
    89.97000     1.37000   0.
    90.97000     1.42000   0.
    91.97000     1.47000   0.
    92.97000     1.48000   0.
    93.97000     1.49000   0.
    94.97000     1.50000   0.
    95.98000     1.50000   0.
    96.98000     1.52000   0.
    97.98000     1.54000   0.
    98.98000     1.54000   0.
    99.98000     1.54000   0.
   100.98000     1.58000   0.
   101.98000     1.61000   0.
   102.98000     1.60000   0.
   103.98000     1.59000   0.
   104.98000     1.62000   0.
   105.98000     1.64000   0.
   106.98000     1.68000   0.
   107.98000     1.71000   0.
   108.98000     1.73000   0.
   109.99000     1.76000   0.
   110.99000     1.81000   0.
   111.99000     1.85000   0.
   112.99000     1.84000   0.
   113.99000     1.83000   0.
   114.99000     1.84000   0.
   115.99000     1.85000   0.
   116.99000     1.86000   0.
   117.99000     1.86000   0.
   118.99000     1.83000   0.
   119.99000     1.81000   0.
   120.99000     1.86000   0.
   121.99000     1.91000   0.
   122.99000     1.96000   0.
   123.99000     2.03000   0.
   124.99000     2.14000   0.
   125.98000     2.25000   0.
   126.98000     2.34000   0.
   131.98000     2.34000   0.
    -5.00000    -5.00000   0.
    -1.74000    -5.00000   0.
     1.52000    -4.92000   0.
     4.78000    -4.83000   0.
     8.05000    -4.82000   0.
    11.31000    -4.99000   0.
    14.57000    -5.13000   0.
    17.83000    -5.12000   0.
    21.09000    -5.07000   0.
    24.35000    -5.01000   0.
    27.61000    -4.91000   0.
    30.88000    -4.85000   0.
    34.14000    -4.74000   0.
    37.40000    -4.59000   0.
    40.66000    -4.47000   0.
    43.92000    -4.22000   0.
    47.18000    -4.06000   0.
    50.44000    -4.12000   0.
    53.70000    -4.09000   0.
    56.97000    -4.20000   0.
    60.23000    -4.20000   0.
    63.49000    -4.18000   0.
    66.75000    -4.17000   0.
    70.01000    -4.10000   0.
    73.27000    -3.77000   0.
    76.53000    -3.57000   0.
    79.79000    -3.66000   0.
    83.06000    -3.64000   0.
    86.32000    -3.62000   0.
    89.58000    -3.62000   0.
    92.84000    -3.52000   0.
    96.10000    -3.50000   0.
    99.36000    -3.46000   0.
   102.62000    -3.40000   0.
   105.89000    -3.36000   0.
   109.15000    -3.26000   0.
   112.41000    -3.16000   0.
   115.67000    -3.15000   0.
   118.93000    -3.17000   0.
   122.19000    -3.08000   0.
   125.45000    -2.81000   0.
   128.71000    -2.66000   0.
   131.98000    -2.66000   0.
  -639.88000     0.00000   0.
  -639.88000  -385.93000   0.
   766.86000     2.34000   0.
   766.86000  -385.93000   0.
    -3.07439     0.00000   0.
    -1.69523     0.00000   0.
    -0.70746     0.00000   0.
     0.50000     0.02500   0.
     1.50000     0.07500   0.
     2.50000     0.11000   0.
     3.50000     0.13000   0.
     4.50000     0.16000   0.
     5.50000     0.20000   0.
     6.50000     0.21000   0.
     7.50000     0.19000   0.
     8.50000     0.14500   0.
     9.50000     0.08000   0.
    10.50000     0.03500   0.
    11.50000     0.00500   0.
    12.50000    -0.03500   0.
    13.50000    -0.08500   0.
    14.50000    -0.13000   0.
    15.50000    -0.17000   0.
    16.50000    -0.17000   0.
    17.50000    -0.13000   0.
    18.50000    -0.08000   0.
    19.50000    -0.02500   0.
    20.50000    -0.03500   0.
    21.50000    -0.10000   0.
    22.50000    -0.10500   0.
    23.50000    -0.05500   0.
    24.50000     0.00000   0.
    25.50000     0.06000   0.
    26.50000     0.09000   0.
    27.50000     0.09000   0.
    28.50000     0.10500   0.
    29.50000     0.13500   0.
    30.50000     0.15500   0.
    31.50000     0.16000   0.
    32.50000     0.18500   0.
    33.50000     0.23500   0.
    34.50000     0.25000   0.
    35.50000     0.23000   0.
    36.50000     0.28500   0.
    37.49500     0.41500   0.
    38.49000     0.48000   0.
    39.49000     0.48000   0.
    40.49000     0.51500   0.
    41.49000     0.58500   0.
    42.48500     0.67500   0.
    43.48000     0.75500   0.
    44.48000     0.80500   0.
    45.48000     0.85500   0.
    46.48000     0.90500   0.
    47.48000     0.95500   0.
    48.48000     0.96000   0.
    49.48000     0.92000   0.
    50.48000     0.88000   0.
    51.48000     0.84000   0.
    52.48000     0.85000   0.
    53.48000     0.90500   0.
    54.48000     0.91000   0.
    55.48000     0.87000   0.
    56.48000     0.82500   0.
    57.48000     0.77500   0.
    58.48000     0.76500   0.
    59.48000     0.79000   0.
    60.48000     0.80000   0.
    61.48000     0.80000   0.
    62.48500     0.80500   0.
    63.49000     0.81500   0.
    64.49000     0.81500   0.
    65.49000     0.81000   0.
    66.49000     0.82000   0.
    67.49000     0.84000   0.
    68.49000     0.86000   0.
    69.49000     0.88500   0.
    70.49000     0.95000   0.
    71.48500     1.05000   0.
    72.48000     1.15000   0.
    73.48000     1.24500   0.
    74.48000     1.31500   0.
    75.47500     1.37000   0.
    76.47000     1.43000   0.
    77.47000     1.48500   0.
    78.47000     1.46000   0.
    79.47000     1.36500   0.
    80.47000     1.34500   0.
    81.47000     1.39500   0.
    82.47000     1.39500   0.
    83.47000     1.34500   0.
    84.47000     1.33500   0.
    85.47000     1.36000   0.
    86.47000     1.38500   0.
    87.47000     1.41000   0.
    88.47000     1.40500   0.
    89.47000     1.38000   0.
    90.47000     1.39500   0.
    91.47000     1.44500   0.
    92.47000     1.47500   0.
    93.47000     1.48500   0.
    94.47000     1.49500   0.
    95.47500     1.50000   0.
    96.48000     1.51000   0.
    97.48000     1.53000   0.
    98.48000     1.54000   0.
    99.48000     1.54000   0.
   100.48000     1.56000   0.
   101.48000     1.59500   0.
   102.48000     1.60500   0.
   103.48000     1.59500   0.
   104.48000     1.60500   0.
   105.48000     1.63000   0.
   106.48000     1.66000   0.
   107.48000     1.69500   0.
   108.48000     1.72000   0.
   109.48500     1.74500   0.
   110.49000     1.78500   0.
   111.49000     1.83000   0.
   112.49000     1.84500   0.
   113.49000     1.83500   0.
   114.49000     1.83500   0.
   115.49000     1.84500   0.
   116.49000     1.85500   0.
   117.49000     1.86000   0.
   118.49000     1.84500   0.
   119.49000     1.82000   0.
   120.49000     1.83500   0.
   121.49000     1.88500   0.
   122.49000     1.93500   0.
   123.49000     1.99500   0.
   124.49000     2.08500   0.
   125.48500     2.19500   0.
   126.48000     2.29500   0.
   127.68746     2.34000   0.
   128.67523     2.34000   0.
   130.05439     2.34000   0.
    -3.37000    -5.00000   0.
    -0.11000    -4.96000   0.
     3.15000    -4.87500   0.
     6.41500    -4.82500   0.
     9.68000    -4.90500   0.
    12.94000    -5.06000   0.
    16.20000    -5.12500   0.
    19.46000    -5.09500   0.
    22.72000    -5.04000   0.
    25.98000    -4.96000   0.
    29.24500    -4.88000   0.
    32.51000    -4.79500   0.
    35.77000    -4.66500   0.
    39.03000    -4.53000   0.
    42.29000    -4.34500   0.
    45.55000    -4.14000   0.
    48.81000    -4.09000   0.
    52.07000    -4.10500   0.
    55.33500    -4.14500   0.
    58.60000    -4.20000   0.
[...]
POINT_DATA      2188
CELL_DATA      4025
SCALARS Resistivity(ohm.m) double 1
LOOKUP_TABLE default
           431.99074           413.53011           438.74334           433.10948           433.65984           182.15851           432.96377           433.17095           433.36623           431.42330           376.51668           631.25664           433.07541           433.20169           437.12661           464.58730           434.06978           432.39800           370.95784           436.71658           432.72514           935.42226           433.97512           422.56756           432.75099           319.45806           452.31719           281.76526           465.06647           201.49250           193.97273           435.86894           434.37792           432.72489           359.23731           692.13083           621.85150           609.19944           219.42177           432.67989           411.89287           560.99354          6024.28337          1025.63270           432.61043           433.04469           465.79084           363.72435           436.59617           378.23877           433.35272           434.62080           225.71721           267.34075           216.27007           568.43516           431.73514           711.34351           365.12446           772.38260           433.07608           432.41254           360.94994           686.64501           433.21975          2126.37347           308.76415           436.05452           613.52532           432.39986           458.44835           906.48835           448.02715           371.63997           549.75730           422.80629           412.83817           221.14923           903.69737           449.24185           783.52212           934.21675           432.39944           290.34473           915.78355           432.45158           218.21359           433.20594           190.52668           316.18847           463.04101           433.52518           433.23872           432.59923           238.87843           448.98704           432.84071           943.98254           432.97952           413.23415           433.64440           440.99864           463.83601           473.36240           835.75374           779.45046           433.38978           433.74737           436.35597           437.52232           384.26678           435.57037           432.59864           455.47495           433.07797           743.79793          2525.84945           433.38329           432.83879           646.89447           365.50740           435.31016           434.49998           217.76273           241.59954           438.88840           790.79827           922.64842           617.81817           432.85481           600.14208           470.62218           444.11261           431.07506           235.25970           433.44373           437.04695           435.32699           443.48330           439.79317           863.89527           183.60537           303.69831           272.72880           197.36051           432.43691           270.35057           527.88811           227.80357           434.71711           552.60944           979.92886           439.87761           442.52657           433.81774           500.63479           435.13734           446.86756          1280.98967           445.93767           491.65164           572.73273           432.80372           823.64754           839.61860           226.20418           434.29945           433.20951           432.66629           613.87129           808.42804           432.59461           432.44245          1150.39130           358.09715           374.55078           393.66861           408.32000           434.07941           432.73111           448.26557           433.15780           280.42411           719.86591           407.35708          1099.44507           717.62858           374.79687           707.79607          1177.12653           411.05903           604.66852           432.91304           452.84264           395.43585           455.83384           432.38664           432.60985           619.42284           433.48056           474.51399           182.46743           505.61871           439.56476          1297.28172           447.79617           167.77494           756.29492           437.87158           437.69306           455.71814           613.89492           586.37057           432.42707           432.67738           267.26015           440.90589           560.47281           626.07747           434.32739           476.56363           432.52734           370.95742           862.04791          1183.95691           435.37667           248.39998          1307.88385           452.50697           445.14952           437.19860           553.25663           432.89233           862.38247           448.65926           436.42030           618.89183           432.52148           432.39658           598.74197           432.64365           434.06302           463.95592           439.88361           304.52011           432.80045           459.42441           433.89951           435.70616           432.51008           404.58581           445.53084           366.87275           600.55221           678.14557           353.96618           432.91709          2728.12078           729.06617           437.02434           321.81070           559.22220           436.06284           432.42865           584.59750           432.49329           585.82147           435.69373           437.53248           456.16334           420.86678           484.05129           434.86745           602.16278           433.15534           460.57960           435.49896           537.49910           438.15956           433.98917           772.12464           433.32473           505.88937         10011.91017           443.65785           440.57012           591.38024           432.61411           432.61214           433.34804           377.21438           428.81764           771.89057           432.44042           483.53568           466.25968           476.05786           449.79077           479.44884           298.28901           311.69902          1223.48660           435.63661           561.82814           369.36302           432.42546           577.18202           471.76324           389.06629           435.04197           929.98221           482.96544           432.54113           552.90307           456.51788           427.18341           474.60358           239.26822           434.84407           764.04369           221.11524           432.43674           432.52197           415.89423           433.55037           436.07298           258.10667           432.96020           449.81273           433.04528           274.65129           686.64309           238.57257           877.90828           192.65080           432.94275           441.46699           432.44298           432.65580           432.55501           922.21054           432.41428           432.45852           434.26033           881.92487           432.42716           349.09001           179.52354           405.06134           433.11814           248.04357           440.61995           432.51177           451.24770           436.06957           432.99123           432.48206           432.49125           727.43519           438.91174           221.05124           443.06977           457.34106           433.11224           496.90848           583.15760           434.71330           366.93923           433.42368           468.43559           889.65410           562.15040           344.08209           583.73489           982.69449           232.32445           433.09016           291.73185           392.49285           779.96665           590.31163           432.63677           434.94853           456.96948           432.92065           299.27445           847.33657           432.84258           443.37593          8911.70066           711.12845           300.88097           433.25425           761.48283           412.96290           432.38586           424.77589           444.65559           561.27856           432.82071           379.31216           444.15499           178.09721           284.24711           598.64410           600.80350           432.92441           272.52953           432.90812           432.89862           443.68024           432.88267           164.14887           433.31512           258.73503           432.42542           612.58945           519.10914           437.91172           513.18329           434.09778           433.24237           586.08655           258.40062           433.63238           440.02527           600.12847           461.62251           424.82384           681.54813           432.44033           407.79880           465.04131           456.55325           433.35380           640.32756           433.29597          1141.27151           275.04140           525.97309           453.77375           433.28303           416.55711           442.77387           433.96754           445.41974           446.09925           419.66919           412.18448           434.45587           437.95129           232.01418           205.80123           433.19100           437.13416           432.65157           211.15417           915.93450           433.60258           594.04017           521.33405           589.29983           432.92960           538.77434           579.93563           181.17657           281.10535           433.10437           169.26802           335.88075           453.72078           211.45127           432.52488           345.19514           496.41540           662.29000           440.07449           480.52192           431.08066           434.15702           653.79250           618.79173           227.25964           434.23507           289.29540           513.56555           432.51241           433.46349           567.32913           905.03998           616.31490           432.65844           432.56073           630.13624           367.23423           795.81044           627.32683           750.25214           432.63595           432.40384           433.45647           410.15325           433.67698           653.85183           432.38965           443.55385           433.20044           440.17521           432.44360           432.95296           433.04417           432.38623           432.48138           432.53985           432.38645           298.91254           368.65703           466.68801           192.32145           453.53995           446.01361           385.53847           432.44205           432.41804           448.02499           259.86207           432.40177           432.81572           338.01693           434.90516           432.50729           413.07847          1051.97722           451.56051           432.37825           576.03247           463.19122           434.10717           432.49471           432.46552           290.58082           199.36883           368.49903           262.83362           389.38799           447.44228           435.09952           433.60643           447.71257           222.77860           398.46036           439.74398           516.36469           433.80021           489.41884           432.41711           439.34943           202.30239           845.71677           155.66865           434.95385           434.14375           216.67978           434.84794           349.61700           437.12047           780.22417          1089.62052           419.86355           432.79989           432.45696           215.05379           432.55523           590.99749           226.62520           444.79180           433.97732           323.53428           432.94304           432.59338           512.43402           439.13400           447.43951           432.42401           432.38567           472.92675           473.44269           432.40142           432.42029           432.41207           559.97626           736.84974          1265.65960          1367.54631          1387.84281          1381.98177           434.01998           422.66249           433.42610           432.42605           433.09798           540.99069           432.73943           432.46581           432.83163           414.80278           231.06528           432.36886           432.43811           432.38522           432.37749           452.13268           432.38815           424.82841          1121.86559           432.42842           433.11497           432.94881           433.25108           542.10773           438.12094           237.77736           432.52740           432.40802           432.92725           483.91230          1072.16674           728.25915           432.75146           978.84230           322.79774           432.40858           698.32393           929.50453           514.44660           432.38560           432.39668           432.72525           433.40240           432.44128           432.45526           432.38546           340.81115           301.15822           435.13278           588.06775           360.06298           282.76920           565.94742          2230.25463           432.39727           327.07372           443.30348           440.75431           842.18801           432.51396           434.48524           278.15128           432.48739           291.62045           398.07979           574.48302           419.66225           464.01003           432.48035           451.83082           439.52009           432.39717           432.40027           244.54427           424.52577           453.86270           432.38701           437.29803           432.42115           259.33569           444.92407           432.40463           432.40637           432.39906           578.80803           436.83196           500.37309           432.92706           554.02392           723.42375           665.76159           519.07729           432.41190           797.54840           432.80310           678.32603           600.80215           445.32711           435.12667           432.62464           432.57725           432.39651           432.57905           432.65897           560.12581           589.27640           911.35812           988.73586           163.04315           433.46856           432.46260           432.57256           432.53413           241.62093           432.79806           368.07465           436.42712           432.78560           348.31530           432.47884           199.67674           781.09214           559.96712           612.83039           416.69579           428.03663           873.43400           433.22170           168.08836           432.46200           432.38489           432.38524           452.25705           432.80726           432.40626           433.12508           439.26940           436.43793           546.12007          2773.23815           428.81691           432.46784           434.84795           433.36370           684.21451           434.90364           450.43221           402.02691           432.41042           537.05806           453.42740           433.49013           441.10267           414.33716           432.70748           586.45663           936.22842           432.74398           430.14775           441.50022           435.67048           309.88193           432.42010           432.32880           885.32250           432.64494           435.25968           433.03802           435.06164           436.96508           426.58487           433.07227           658.54234           434.82517           433.92111          1082.17175         83323.28254           432.86435           160.98866           436.34497           809.46299           392.17710          1091.36384           643.29580           700.78748           417.07179           433.50296           488.91977           432.42664           432.47194           245.34650           432.86515           333.69840           516.32579           290.11092           433.17244           456.07095           432.47398           530.84715           468.27431           432.55485           321.00912           308.96772           496.60888           433.74678           440.26149           409.59586           433.10193           943.51368           485.91033           458.47858           431.50634           434.36182           287.75925           432.59540           334.00936           443.44961           438.27580           432.78448           580.30327           432.43724           438.85302           433.18437           432.51345           331.96085           432.44787           396.88417           346.74905           466.80526           663.79339           432.42254           433.34703           754.36293           442.98365           432.54717           413.17170           435.32875           308.30923           432.86846           396.23579           261.17124           432.50054           875.76431           432.46586           196.57047           631.80495           438.26716           432.61711           443.24655           231.07044           433.46735           432.92394           210.33518           432.55206           288.41959           443.51079           600.32319           432.40882           432.50410           433.50427           845.71968           443.27023           750.93719           473.12300           393.76588           433.23766           471.54347           372.88678           449.74382           433.14542           706.68113           433.62264           445.05830           881.20837           332.99538           516.31017           432.38877           432.43074           432.72991           438.89506           464.29025           435.71902           719.77354           437.85151           448.12313           432.43255           360.36152           355.13730           432.40707           435.23615           820.61851           432.38524           437.99079           434.23091           432.46101           432.41135           434.40471           438.94818           704.00030           399.03696           434.12983           459.67514           294.56901           272.86678           470.74824           432.61922           429.20792           628.69568           433.11761           573.31808           432.42236           565.97190           432.47257           433.25978          1127.21602           432.40743           523.31672           426.94999           432.46270           279.53308           432.77504           432.59288           641.55857           432.81779           433.27135           433.24627           437.11775           536.97117           700.15067           432.54063           626.78795           439.12529          1313.15089          1445.81366          1426.24398           493.61565           693.60905           439.76423           432.40844           432.93203           561.70493           432.71445           499.20323           433.75310           432.49809           438.37223           548.73297           449.07184           432.60719           432.45240           327.15158           433.07814          1184.18446           436.49910           432.68802           432.53165           432.71458           433.02664           435.19031           432.43679           536.74419           756.63635           432.54422           432.39628           672.36467           432.76045           679.91524           475.25110           432.39614           432.38477           431.98272           432.66763           232.53387           295.21353           432.93318           440.84034           433.55767           585.07712           430.91794           433.49112           432.93677           435.53272           460.86419           432.39672           462.00901           433.41078           975.93846           432.60864           678.96386           220.91664           172.30306           201.53527           245.78361           432.38574           621.79204           355.76310           599.99119           432.38536           215.14362  