# vtk DataFile Version 3.0
Output from R2
ASCII
DATASET UNSTRUCTURED_GRID
POINTS       2188 double
    -5.00000     0.00000   0.
     0.00000     0.00000   0.
     1.00000     0.05000   0.
     2.00000     0.10000   0.
     3.00000     0.12000   0.
     4.00000     0.14000   0.
     5.00000     0.18000   0.
     6.00000     0.22000   0.
     7.00000     0.20000   0.
     8.00000     0.18000   0.
     9.00000     0.11000   0.
    10.00000     0.05000   0.
    11.00000     0.02000   0.
    12.00000    -0.01000   0.
    13.00000    -0.06000   0.
    14.00000    -0.11000   0.
    15.00000    -0.15000   0.
    16.00000    -0.19000   0.
    17.00000    -0.15000   0.
    18.00000    -0.11000   0.
    19.00000    -0.05000   0.
    20.00000     0.00000   0.
    21.00000    -0.07000   0.
    22.00000    -0.13000   0.
    23.00000    -0.08000   0.
    24.00000    -0.03000   0.
    25.00000     0.03000   0.
    26.00000     0.09000   0.
    27.00000     0.09000   0.
    28.00000     0.09000   0.
    29.00000     0.12000   0.
    30.00000     0.15000   0.
    31.00000     0.16000   0.
    32.00000     0.16000   0.
    33.00000     0.21000   0.
    34.00000     0.26000   0.
    35.00000     0.24000   0.
    36.00000     0.22000   0.
    37.00000     0.35000   0.
    37.99000     0.48000   0.
    38.99000     0.48000   0.
    39.99000     0.48000   0.
    40.99000     0.55000   0.
    41.99000     0.62000   0.
    42.98000     0.73000   0.
    43.98000     0.78000   0.
    44.98000     0.83000   0.
    45.98000     0.88000   0.
    46.98000     0.93000   0.
    47.98000     0.98000   0.
    48.98000     0.94000   0.
    49.98000     0.90000   0.
    50.98000     0.86000   0.
    51.98000     0.82000   0.
    52.98000     0.88000   0.
    53.98000     0.93000   0.
    54.98000     0.89000   0.
    55.98000     0.85000   0.
    56.98000     0.80000   0.
    57.98000     0.75000   0.
    58.98000     0.78000   0.
    59.98000     0.80000   0.
    60.98000     0.80000   0.
    61.98000     0.80000   0.
    62.99000     0.81000   0.
    63.99000     0.82000   0.
    64.99000     0.81000   0.
    65.99000     0.81000   0.
    66.99000     0.83000   0.
    67.99000     0.85000   0.
    68.99000     0.87000   0.
    69.99000     0.90000   0.
    70.99000     1.00000   0.
    71.98000     1.10000   0.
    72.98000     1.20000   0.
    73.98000     1.29000   0.
    74.98000     1.34000   0.
    75.97000     1.40000   0.
    76.97000     1.46000   0.
    77.97000     1.51000   0.
    78.97000     1.41000   0.
    79.97000     1.32000   0.
    80.97000     1.37000   0.
    81.97000     1.42000   0.
    82.97000     1.37000   0.
    83.97000     1.32000   0.
    84.97000     1.35000   0.
    85.97000     1.37000   0.
    86.97000     1.40000   0.
    87.97000     1.42000   0.
    88.97000     1.39000   0.
    89.97000     1.37000   0.
    90.97000     1.42000   0.
    91.97000     1.47000   0.
    92.97000     1.48000   0.
    93.97000     1.49000   0.
    94.97000     1.50000   0.
    95.98000     1.50000   0.
    96.98000     1.52000   0.
    97.98000     1.54000   0.
    98.98000     1.54000   0.
    99.98000     1.54000   0.
   100.98000     1.58000   0.
   101.98000     1.61000   0.
   102.98000     1.60000   0.
   103.98000     1.59000   0.
   104.98000     1.62000   0.
   105.98000     1.64000   0.
   106.98000     1.68000   0.
   107.98000     1.71000   0.
   108.98000     1.73000   0.
   109.99000     1.76000   0.
   110.99000     1.81000   0.
   111.99000     1.85000   0.
   112.99000     1.84000   0.
   113.99000     1.83000   0.
   114.99000     1.84000   0.
   115.99000     1.85000   0.
   116.99000     1.86000   0.
   117.99000     1.86000   0.
   118.99000     1.83000   0.
   119.99000     1.81000   0.
   120.99000     1.86000   0.
   121.99000     1.91000   0.
   122.99000     1.96000   0.
   123.99000     2.03000   0.
   124.99000     2.14000   0.
   125.98000     2.25000   0.
   126.98000     2.34000   0.
   131.98000     2.34000   0.
    -5.00000    -5.00000   0.
    -1.74000    -5.00000   0.
     1.52000    -4.92000   0.
     4.78000    -4.83000   0.
     8.05000    -4.82000   0.
    11.31000    -4.99000   0.
    14.57000    -5.13000   0.
    17.83000    -5.12000   0.
    21.09000    -5.07000   0.
    24.35000    -5.01000   0.
    27.61000    -4.91000   0.
    30.88000    -4.85000   0.
    34.14000    -4.74000   0.
    37.40000    -4.59000   0.
    40.66000    -4.47000   0.
    43.92000    -4.22000   0.
    47.18000    -4.06000   0.
    50.44000    -4.12000   0.
    53.70000    -4.09000   0.
    56.97000    -4.20000   0.
    60.23000    -4.20000   0.
    63.49000    -4.18000   0.
    66.75000    -4.17000   0.
    70.01000    -4.10000   0.
    73.27000    -3.77000   0.
    76.53000    -3.57000   0.
    79.79000    -3.66000   0.
    83.06000    -3.64000   0.
    86.32000    -3.62000   0.
    89.58000    -3.62000   0.
    92.84000    -3.52000   0.
    96.10000    -3.50000   0.
    99.36000    -3.46000   0.
   102.62000    -3.40000   0.
   105.89000    -3.36000   0.
   109.15000    -3.26000   0.
   112.41000    -3.16000   0.
   115.67000    -3.15000   0.
   118.93000    -3.17000   0.
   122.19000    -3.08000   0.
   125.45000    -2.81000   0.
   128.71000    -2.66000   0.
   131.98000    -2.66000   0.
  -639.88000     0.00000   0.
  -639.88000  -385.93000   0.
   766.86000     2.34000   0.
   766.86000  -385.93000   0.
    -3.07439     0.00000   0.
    -1.69523     0.00000   0.
    -0.70746     0.00000   0.
     0.50000     0.02500   0.
     1.50000     0.07500   0.
     2.50000     0.11000   0.
     3.50000     0.13000   0.
     4.50000     0.16000   0.
     5.50000     0.20000   0.
     6.50000     0.21000   0.
     7.50000     0.19000   0.
     8.50000     0.14500   0.
     9.50000     0.08000   0.
    10.50000     0.03500   0.
    11.50000     0.00500   0.
    12.50000    -0.03500   0.
    13.50000    -0.08500   0.
    14.50000    -0.13000   0.
    15.50000    -0.17000   0.
    16.50000    -0.17000   0.
    17.50000    -0.13000   0.
    18.50000    -0.08000   0.
    19.50000    -0.02500   0.
    20.50000    -0.03500   0.
    21.50000    -0.10000   0.
    22.50000    -0.10500   0.
    23.50000    -0.05500   0.
    24.50000     0.00000   0.
    25.50000     0.06000   0.
    26.50000     0.09000   0.
    27.50000     0.09000   0.
    28.50000     0.10500   0.
    29.50000     0.13500   0.
    30.50000     0.15500   0.
    31.50000     0.16000   0.
    32.50000     0.18500   0.
    33.50000     0.23500   0.
    34.50000     0.25000   0.
    35.50000     0.23000   0.
    36.50000     0.28500   0.
    37.49500     0.41500   0.
    38.49000     0.48000   0.
    39.49000     0.48000   0.
    40.49000     0.51500   0.
    41.49000     0.58500   0.
    42.48500     0.67500   0.
    43.48000     0.75500   0.
    44.48000     0.80500   0.
    45.48000     0.85500   0.
    46.48000     0.90500   0.
    47.48000     0.95500   0.
    48.48000     0.96000   0.
    49.48000     0.92000   0.
    50.48000     0.88000   0.
    51.48000     0.84000   0.
    52.48000     0.85000   0.
    53.48000     0.90500   0.
    54.48000     0.91000   0.
    55.48000     0.87000   0.
    56.48000     0.82500   0.
    57.48000     0.77500   0.
    58.48000     0.76500   0.
    59.48000     0.79000   0.
    60.48000     0.80000   0.
    61.48000     0.80000   0.
    62.48500     0.80500   0.
    63.49000     0.81500   0.
    64.49000     0.81500   0.
    65.49000     0.81000   0.
    66.49000     0.82000   0.
    67.49000     0.84000   0.
    68.49000     0.86000   0.
    69.49000     0.88500   0.
    70.49000     0.95000   0.
    71.48500     1.05000   0.
    72.48000     1.15000   0.
    73.48000     1.24500   0.
    74.48000     1.31500   0.
    75.47500     1.37000   0.
    76.47000     1.43000   0.
    77.47000     1.48500   0.
    78.47000     1.46000   0.
    79.47000     1.36500   0.
    80.47000     1.34500   0.
    81.47000     1.39500   0.
    82.47000     1.39500   0.
    83.47000     1.34500   0.
    84.47000     1.33500   0.
    85.47000     1.36000   0.
    86.47000     1.38500   0.
    87.47000     1.41000   0.
    88.47000     1.40500   0.
    89.47000     1.38000   0.
    90.47000     1.39500   0.
    91.47000     1.44500   0.
    92.47000     1.47500   0.
    93.47000     1.48500   0.
    94.47000     1.49500   0.
    95.47500     1.50000   0.
    96.48000     1.51000   0.
    97.48000     1.53000   0.
    98.48000     1.54000   0.
    99.48000     1.54000   0.
   100.48000     1.56000   0.
   101.48000     1.59500   0.
   102.48000     1.60500   0.
   103.48000     1.59500   0.
   104.48000     1.60500   0.
   105.48000     1.63000   0.
   106.48000     1.66000   0.
   107.48000     1.69500   0.
   108.48000     1.72000   0.
   109.48500     1.74500   0.
   110.49000     1.78500   0.
   111.49000     1.83000   0.
   112.49000     1.84500   0.
   113.49000     1.83500   0.
   114.49000     1.83500   0.
   115.49000     1.84500   0.
   116.49000     1.85500   0.
   117.49000     1.86000   0.
   118.49000     1.84500   0.
   119.49000     1.82000   0.
   120.49000     1.83500   0.
   121.49000     1.88500   0.
   122.49000     1.93500   0.
   123.49000     1.99500   0.
   124.49000     2.08500   0.
   125.48500     2.19500   0.
   126.48000     2.29500   0.
   127.68746     2.34000   0.
   128.67523     2.34000   0.
   130.05439     2.34000   0.
    -3.37000    -5.00000   0.
    -0.11000    -4.96000   0.
     3.15000    -4.87500   0.
     6.41500    -4.82500   0.
     9.68000    -4.90500   0.
    12.94000    -5.06000   0.
    16.20000    -5.12500   0.
    19.46000    -5.09500   0.
    22.72000    -5.04000   0.
    25.98000    -4.96000   0.
    29.24500    -4.88000   0.
    32.51000    -4.79500   0.
    35.77000    -4.66500   0.
    39.03000    -4.53000   0.
    42.29000    -4.34500   0.
    45.55000    -4.14000   0.
    48.81000    -4.09000   0.
    52.07000    -4.10500   0.
    55.33500    -4.14500   0.
    58.60000    -4.20000   0.
[...]
POINT_DATA      2188
CELL_DATA      4025
SCALARS Resistivity(ohm.m) double 1
LOOKUP_TABLE default
           432.19117           434.64585           438.98138           433.14969           433.71988           174.44006           432.99218           433.21627           433.44265           431.65155           376.72384           650.28007           433.11570           433.25402           437.48250           465.71800           434.15665           432.40148           371.35355           437.07640           432.75452          1038.26096           434.62458           423.23914           432.76757           326.10280           452.84078           276.68461           466.03495           213.74969           189.23596           436.05270           434.48760           432.73431           361.46088           700.07352           638.25987           615.29132           233.42703           432.70039           412.64161           562.94051          6962.03775          1194.90635           432.62127           433.07564           467.24015           366.89679           436.80499           379.22375           433.41465           435.38615           180.64110           286.51132           188.37826           579.32434           432.10815           731.62712           365.83447           878.43571           433.12219           432.41303           336.92502           789.62414           433.27967          2259.28663           322.65517           436.18408           623.96614           432.40101           459.32034           981.55633           454.96017           372.78494           605.78741           423.25204           439.74805           191.40532           990.60025           449.70999           871.03145          1092.01210           432.40246           278.76801          1050.78257           432.45538           233.04363           433.31612           202.02474           308.49341           475.87333           433.59420           433.27869           432.61531           253.89514           449.77675           432.86420          1081.71810           433.01459           385.69892           433.71101           441.63169           465.53164           475.46908           895.45585           757.05971           433.43177           433.81756           436.55855           437.94707           384.89445           435.70138           432.61155           445.63236           433.11977           775.39694          2677.30302           433.49164           432.86459           711.13337           369.42580           435.45640           434.59301           201.32554           257.37696           439.16213           780.11136          1018.94108           627.58844           432.87519           607.83501           483.43914           444.66338           431.35801           240.35768           433.49573           437.28053           435.48428           444.03211           440.15829           935.47080           187.86778           304.74133           284.44339           207.03192           432.44401           246.35161           529.91002           243.28322           434.83461           558.29117          1090.27186           440.32736           443.21935           433.88565           508.07677           435.27839           447.00523          1530.33784           446.38197           493.17387           582.91791           432.81788           890.05109           882.77647           199.12459           434.39865           433.25775           432.68384           630.07986           852.83701           432.60418           432.44409          1365.39236           405.84545           376.04036           444.27372           421.44151           434.16628           432.74781           449.08025           433.20081           279.87058           798.60029           407.63425          1283.67228           742.13094           377.11347           799.41970          1392.93240           467.29656           619.35545           432.93934           453.58802           405.01129           456.43557           432.39061           432.62590           623.92275           433.54177           459.87777           167.88418           487.61266           440.04823          1553.54632           469.67586           162.65355           813.34305           438.14199           437.94107           456.45393           624.13658           569.15520           432.43564           432.69420           279.81787           441.34167           571.16355           604.92607           434.42931           477.86382           432.53832           371.01994           814.87149          1414.71240           435.60682           205.57061          1305.85069           453.26962           446.14189           437.40808           601.06271           432.90938           927.53428           449.31890           436.62584           615.24299           432.52579           432.40128           607.90272           432.65601           434.14227           465.61537           440.28050           274.11406           432.81998           460.19926           433.98385           435.88581           432.51736           409.48774           446.18441           368.51425           613.31489           723.48977           368.93469           432.95712          2975.32103           766.66484           437.26524           340.47272           557.91423           436.33558           432.43698           588.19321           432.49424           600.09405           435.84340           437.79086           457.03341           433.66211           485.29389           434.98494           613.22276           433.19548           462.74462           435.63648           541.60458           438.57479           434.06306           770.04198           433.37427           508.96793         12217.73009           444.19956           440.99238           599.44764           432.62608           432.62094           433.39086           378.08014           429.32160           801.64974           432.44454           485.80492           467.79603           485.04299           450.44742           484.46557           295.44582           289.30763          1462.33473           435.81002           552.74467           366.69337           432.43149           571.15607           473.54454           389.56268           435.16918           929.41158           484.13165           432.54856           560.87245           458.62187           427.78198           476.88089           245.36235           434.96040           864.49788           206.77706           432.44180           432.52655           413.57001           433.61182           436.24235           262.87393           433.00253           450.36349           433.08572           285.12077           696.14789           233.44183           945.73856           205.92641           432.97432           441.92934           432.44270           432.67604           432.57125          1037.90244           432.41007           432.46422           434.35410           986.87664           432.43150           296.73933           183.10538           433.45961           433.15853           221.69419           440.91410           432.51946           452.98335           436.25514           433.03593           432.48408           432.49837           735.31064           439.26166           192.69721           444.71893           458.62076           433.16274           501.33381           586.24132           434.87990           393.40543           433.46757           469.67560           973.81416           649.46459           329.58822           587.84677           909.75141           245.29611           433.33639           287.70050           359.26421           828.65541           596.00959           432.65313           482.47199           458.15591           432.94701           309.97568           786.85391           433.15131           443.76980         10890.40291           733.22741           297.94220           433.29299           855.78903           430.97568           432.39058           457.33612           445.08292           564.31666           432.85125           379.81492           444.70952           187.68754           300.71692           603.24717           611.54135           432.94830           301.58886           432.94936           432.92679           419.21191           432.90893           162.02713           433.41273           248.46344           432.43346           623.34313           552.56044           438.56652           514.69004           434.18269           433.29018           583.12769           258.99346           433.70136           440.40844           606.07027           462.48939           419.98142           718.75092           432.44182           408.05462           466.53789           457.70652           433.42959           658.96237           433.38180          1071.49380           263.12131           529.34587           425.48377           433.33329           416.81560           443.23469           434.05198           446.00202           446.60464           420.42094           412.44477           434.55376           438.22363           218.97208           218.31463           433.25974           437.32870           432.66158           211.23109           998.50957           433.66515           605.41996           514.38353           597.58243           432.96819           540.50072           583.24427           183.61155           245.36144           433.13300           167.29195           328.70750           453.14111           227.55765           432.52653           328.78959           502.07158           686.85382           440.79901           451.48576           431.52311           434.25715           665.34070           530.58170           242.39906           434.37840           313.63068           516.67501           432.66854           433.65587           596.93009           921.58774           620.19983           432.67419           432.56915           697.23957           368.02504           893.43986           665.23055           784.12872           432.65654           432.40105           433.52126           415.58440           433.75561           675.94668           432.39051           449.96674           433.26861           440.52785           432.44282           432.98270           433.08555           432.39265           432.48756           432.55001           432.39105           294.62690           372.01612           473.45547           201.86095           454.54198           447.41451           386.00013           432.44346           432.42089           449.17732           257.31236           432.39964           432.83700           337.06569           435.03159           432.51953           413.32749          1038.24166           452.53367           432.37989           584.97569           463.97565           434.19410           432.49441           432.47314           250.25220           201.58084           349.54461           231.28083           393.35958           448.23263           435.23393           433.66382           448.26369           230.27828           353.04011           440.12964           542.65282           433.89935           492.89774           432.42008           439.71497           204.31508           971.31144           151.39124           435.44241           434.28908           226.90085           435.05406           349.18322           437.34893           825.09007          1277.40756           420.11708           432.82081           432.46595           221.65589           432.56849           662.77719           201.21460           445.35679           434.10289           324.33475           432.97093           432.60176           516.27048           439.67040           448.20761           432.42617           432.39063           473.92064           474.44337           432.39999           432.42072           432.41219           585.76364           776.03468          1486.40789          1607.57054          1635.97595          1641.58362           434.09377           422.91516           433.48121           432.43400           433.20746           539.23351           432.76820           432.47634           432.86132           416.10743           245.64803           433.82769           432.44066           432.38982           432.37841           459.32310           432.39180           425.07833          1282.52714           432.43359           433.15936           432.98189           433.30014           545.84515           438.43078           212.19043           432.53705           432.41144           432.95734           485.18555           968.65662           755.56641           432.77604          1094.78989           320.27581           432.40988           744.13373          1014.73540           518.21387           432.39319           432.40024           432.74449           433.47584           432.44403           432.46589           432.39199           338.33364           300.30616           435.25876           615.76901           359.85866           281.55659           569.99367          2290.61750           432.39804           327.35762           443.70610           441.14482           880.36819           432.51523           434.60043           279.77145           432.49621           289.49206           407.13845           581.76565           457.39748           465.86477           432.48331           452.82035           439.75791           432.40032           432.40067           211.66679           424.80819           454.40976           432.39090           437.57878           432.42239           255.82477           445.49165           432.39995           432.41055           432.40141           630.63538           436.99783           502.00159           432.97010           555.52295           736.48577           740.80264           524.16307           432.41199           801.94756           432.82645           697.01069           613.06317           446.01695           435.37577           432.63598           432.58911           432.39885           432.59100           432.67799           568.25919           596.61274           791.20309          1128.78831           161.41903           433.63140           432.46224           432.58310           432.53994           241.22238           432.83063           369.47461           436.69105           432.81539           335.23985           432.48347           204.06804           868.23466           564.92183           660.39283           416.95109           428.27537           806.46040           433.29825           170.88070           432.46730           432.38000           432.38917           453.43650           432.84095           432.41263           433.15818           439.59933           437.52408           554.48747          2984.83755           429.19731           432.47267           434.96488           433.40198           713.53051           435.02498           450.91797           402.32547           432.41278           541.23381           470.09507           433.53526           441.49815           396.40891           432.73277           558.01318          1056.92888           432.76539           430.35901           441.76680           435.95349           328.45473           432.42318           432.47559           985.89171           432.65604           435.44957           433.13084           435.19381           437.12570           426.82997           433.12513           721.82980           434.93411           433.97935          1251.85876        138104.96895           432.89605           168.09979           436.51372           792.06122           399.60444          1295.20184           649.48434           779.94176           425.90283           433.56504           490.81263           432.43466           432.47669           261.38990           432.89629           347.78224           576.76478           260.94591           433.20598           456.95214           432.47903           538.10339           469.15215           432.55725           328.79125           307.36459           499.69475           433.83660           440.57811           442.16418           433.14771          1084.26403           487.10142           459.13649           431.68445           434.49135           286.65716           432.61385           332.52538           443.99802           438.55390           432.88887           510.84398           432.44044           439.17308           433.26378           432.51769           335.97795           432.45605           411.48297           353.27285           468.20949           665.09175           432.42406           433.39774           793.39564           443.52748           432.55784           416.48536           435.47849           305.41909           432.89908           396.58652           235.19527           432.50871           850.05592           432.47584           210.37661           649.41106           438.45317           432.63288           447.67251           218.38007           433.54094           432.94247           183.23995           432.56045           264.55821           444.18256           603.22013           432.41292           432.50556           433.54965           964.32047           443.58774           738.02818           474.63519           395.52795           433.27890           476.05992           373.10319           450.82433           433.21408           719.37454           433.66946           445.41384          1008.15138           337.27981           521.68461           432.39094           432.43567           432.75257           439.11702           465.73939           435.83867           747.45435           438.02735           454.17700           432.43395           361.06228           365.04865           432.41084           435.35188           927.77711           432.38981           438.28792           434.31366           432.46618           432.41416           434.50529           439.27730           740.66520           406.20388           434.20404           461.29255           292.07774           247.09625           472.23602           432.63433           429.43591           630.88685           433.17858           584.84625           432.42454           608.10354           432.47466           433.31210          1300.58783           432.41212           525.45559           427.30486           432.46098           285.50618           432.80777           432.60592           692.51238           432.84859           433.31225           433.28377           437.38092           534.57943           706.39446           432.55045           638.95346           440.11108          1529.30532          1703.02049          1672.36872           496.78884           722.47817           439.98855           432.41323           432.95852           565.90484           432.73206           500.55709           433.81898           432.50889           439.72355           577.75365           456.83623           432.62146           432.45069           326.71546           433.12278          1359.67614           436.75032           432.71072           432.53989           432.72992           433.06470           435.32069           432.44201           548.64081           775.73716           432.55073           432.40366           721.79544           432.78544           748.02776           477.11519           432.40252           432.38067           432.14684           432.69094           220.70996           287.13777           433.02916           441.22454           433.68626           593.11531           431.11212           433.56714           432.97496           435.72982           462.12110           432.40259           463.19423           433.50476          1093.62725           432.73392           708.10091           190.76584           173.54889           181.49185           256.63570           432.38957           620.87956           290.43612           600.98881           432.39073           194.62812  