# vtk DataFile Version 3.0
Output from R2
ASCII
DATASET UNSTRUCTURED_GRID
POINTS       2188 double
    -5.00000     0.00000   0.
     0.00000     0.00000   0.
     1.00000     0.05000   0.
     2.00000     0.10000   0.
     3.00000     0.12000   0.
     4.00000     0.14000   0.
     5.00000     0.18000   0.
     6.00000     0.22000   0.
     7.00000     0.20000   0.
     8.00000     0.18000   0.
     9.00000     0.11000   0.
    10.00000     0.05000   0.
    11.00000     0.02000   0.
    12.00000    -0.01000   0.
    13.00000    -0.06000   0.
    14.00000    -0.11000   0.
    15.00000    -0.15000   0.
    16.00000    -0.19000   0.
    17.00000    -0.15000   0.
    18.00000    -0.11000   0.
    19.00000    -0.05000   0.
    20.00000     0.00000   0.
    21.00000    -0.07000   0.
    22.00000    -0.13000   0.
    23.00000    -0.08000   0.
    24.00000    -0.03000   0.
    25.00000     0.03000   0.
    26.00000     0.09000   0.
    27.00000     0.09000   0.
    28.00000     0.09000   0.
    29.00000     0.12000   0.
    30.00000     0.15000   0.
    31.00000     0.16000   0.
    32.00000     0.16000   0.
    33.00000     0.21000   0.
    34.00000     0.26000   0.
    35.00000     0.24000   0.
    36.00000     0.22000   0.
    37.00000     0.35000   0.
    37.99000     0.48000   0.
    38.99000     0.48000   0.
    39.99000     0.48000   0.
    40.99000     0.55000   0.
    41.99000     0.62000   0.
    42.98000     0.73000   0.
    43.98000     0.78000   0.
    44.98000     0.83000   0.
    45.98000     0.88000   0.
    46.98000     0.93000   0.
    47.98000     0.98000   0.
    48.98000     0.94000   0.
    49.98000     0.90000   0.
    50.98000     0.86000   0.
    51.98000     0.82000   0.
    52.98000     0.88000   0.
    53.98000     0.93000   0.
    54.98000     0.89000   0.
    55.98000     0.85000   0.
    56.98000     0.80000   0.
    57.98000     0.75000   0.
    58.98000     0.78000   0.
    59.98000     0.80000   0.
    60.98000     0.80000   0.
    61.98000     0.80000   0.
    62.99000     0.81000   0.
    63.99000     0.82000   0.
    64.99000     0.81000   0.
    65.99000     0.81000   0.
    66.99000     0.83000   0.
    67.99000     0.85000   0.
    68.99000     0.87000   0.
    69.99000     0.90000   0.
    70.99000     1.00000   0.
    71.98000     1.10000   0.
    72.98000     1.20000   0.
    73.98000     1.29000   0.
    74.98000     1.34000   0.
    75.97000     1.40000   0.
    76.97000     1.46000   0.
    77.97000     1.51000   0.
    78.97000     1.41000   0.
    79.97000     1.32000   0.
    80.97000     1.37000   0.
    81.97000     1.42000   0.
    82.97000     1.37000   0.
    83.97000     1.32000   0.
    84.97000     1.35000   0.
    85.97000     1.37000   0.
    86.97000     1.40000   0.
    87.97000     1.42000   0.
    88.97000     1.39000   0.
    89.97000     1.37000   0.
    90.97000     1.42000   0.
    91.97000     1.47000   0.
    92.97000     1.48000   0.
    93.97000     1.49000   0.
    94.97000     1.50000   0.
    95.98000     1.50000   0.
    96.98000     1.52000   0.
    97.98000     1.54000   0.
    98.98000     1.54000   0.
    99.98000     1.54000   0.
   100.98000     1.58000   0.
   101.98000     1.61000   0.
   102.98000     1.60000   0.
   103.98000     1.59000   0.
   104.98000     1.62000   0.
   105.98000     1.64000   0.
   106.98000     1.68000   0.
   107.98000     1.71000   0.
   108.98000     1.73000   0.
   109.99000     1.76000   0.
   110.99000     1.81000   0.
   111.99000     1.85000   0.
   112.99000     1.84000   0.
   113.99000     1.83000   0.
   114.99000     1.84000   0.
   115.99000     1.85000   0.
   116.99000     1.86000   0.
   117.99000     1.86000   0.
   118.99000     1.83000   0.
   119.99000     1.81000   0.
   120.99000     1.86000   0.
   121.99000     1.91000   0.
   122.99000     1.96000   0.
   123.99000     2.03000   0.
   124.99000     2.14000   0.
   125.98000     2.25000   0.
   126.98000     2.34000   0.
   131.98000     2.34000   0.
    -5.00000    -5.00000   0.
    -1.74000    -5.00000   0.
     1.52000    -4.92000   0.
     4.78000    -4.83000   0.
     8.05000    -4.82000   0.
    11.31000    -4.99000   0.
    14.57000    -5.13000   0.
    17.83000    -5.12000   0.
    21.09000    -5.07000   0.
    24.35000    -5.01000   0.
    27.61000    -4.91000   0.
    30.88000    -4.85000   0.
    34.14000    -4.74000   0.
    37.40000    -4.59000   0.
    40.66000    -4.47000   0.
    43.92000    -4.22000   0.
    47.18000    -4.06000   0.
    50.44000    -4.12000   0.
    53.70000    -4.09000   0.
    56.97000    -4.20000   0.
    60.23000    -4.20000   0.
    63.49000    -4.18000   0.
    66.75000    -4.17000   0.
    70.01000    -4.10000   0.
    73.27000    -3.77000   0.
    76.53000    -3.57000   0.
    79.79000    -3.66000   0.
    83.06000    -3.64000   0.
    86.32000    -3.62000   0.
    89.58000    -3.62000   0.
    92.84000    -3.52000   0.
    96.10000    -3.50000   0.
    99.36000    -3.46000   0.
   102.62000    -3.40000   0.
   105.89000    -3.36000   0.
   109.15000    -3.26000   0.
   112.41000    -3.16000   0.
   115.67000    -3.15000   0.
   118.93000    -3.17000   0.
   122.19000    -3.08000   0.
   125.45000    -2.81000   0.
   128.71000    -2.66000   0.
   131.98000    -2.66000   0.
  -639.88000     0.00000   0.
  -639.88000  -385.93000   0.
   766.86000     2.34000   0.
   766.86000  -385.93000   0.
    -3.07439     0.00000   0.
    -1.69523     0.00000   0.
    -0.70746     0.00000   0.
     0.50000     0.02500   0.
     1.50000     0.07500   0.
     2.50000     0.11000   0.
     3.50000     0.13000   0.
     4.50000     0.16000   0.
     5.50000     0.20000   0.
     6.50000     0.21000   0.
     7.50000     0.19000   0.
     8.50000     0.14500   0.
     9.50000     0.08000   0.
    10.50000     0.03500   0.
    11.50000     0.00500   0.
    12.50000    -0.03500   0.
    13.50000    -0.08500   0.
    14.50000    -0.13000   0.
    15.50000    -0.17000   0.
    16.50000    -0.17000   0.
    17.50000    -0.13000   0.
    18.50000    -0.08000   0.
    19.50000    -0.02500   0.
    20.50000    -0.03500   0.
    21.50000    -0.10000   0.
    22.50000    -0.10500   0.
    23.50000    -0.05500   0.
    24.50000     0.00000   0.
    25.50000     0.06000   0.
    26.50000     0.09000   0.
    27.50000     0.09000   0.
    28.50000     0.10500   0.
    29.50000     0.13500   0.
    30.50000     0.15500   0.
    31.50000     0.16000   0.
    32.50000     0.18500   0.
    33.50000     0.23500   0.
    34.50000     0.25000   0.
    35.50000     0.23000   0.
    36.50000     0.28500   0.
    37.49500     0.41500   0.
    38.49000     0.48000   0.
    39.49000     0.48000   0.
    40.49000     0.51500   0.
    41.49000     0.58500   0.
    42.48500     0.67500   0.
    43.48000     0.75500   0.
    44.48000     0.80500   0.
    45.48000     0.85500   0.
    46.48000     0.90500   0.
    47.48000     0.95500   0.
    48.48000     0.96000   0.
    49.48000     0.92000   0.
    50.48000     0.88000   0.
    51.48000     0.84000   0.
    52.48000     0.85000   0.
    53.48000     0.90500   0.
    54.48000     0.91000   0.
    55.48000     0.87000   0.
    56.48000     0.82500   0.
    57.48000     0.77500   0.
    58.48000     0.76500   0.
    59.48000     0.79000   0.
    60.48000     0.80000   0.
    61.48000     0.80000   0.
    62.48500     0.80500   0.
    63.49000     0.81500   0.
    64.49000     0.81500   0.
    65.49000     0.81000   0.
    66.49000     0.82000   0.
    67.49000     0.84000   0.
    68.49000     0.86000   0.
    69.49000     0.88500   0.
    70.49000     0.95000   0.
    71.48500     1.05000   0.
    72.48000     1.15000   0.
    73.48000     1.24500   0.
    74.48000     1.31500   0.
    75.47500     1.37000   0.
    76.47000     1.43000   0.
    77.47000     1.48500   0.
    78.47000     1.46000   0.
    79.47000     1.36500   0.
    80.47000     1.34500   0.
    81.47000     1.39500   0.
    82.47000     1.39500   0.
    83.47000     1.34500   0.
    84.47000     1.33500   0.
    85.47000     1.36000   0.
    86.47000     1.38500   0.
    87.47000     1.41000   0.
    88.47000     1.40500   0.
    89.47000     1.38000   0.
    90.47000     1.39500   0.
    91.47000     1.44500   0.
    92.47000     1.47500   0.
    93.47000     1.48500   0.
    94.47000     1.49500   0.
    95.47500     1.50000   0.
    96.48000     1.51000   0.
    97.48000     1.53000   0.
    98.48000     1.54000   0.
    99.48000     1.54000   0.
   100.48000     1.56000   0.
   101.48000     1.59500   0.
   102.48000     1.60500   0.
   103.48000     1.59500   0.
   104.48000     1.60500   0.
   105.48000     1.63000   0.
   106.48000     1.66000   0.
   107.48000     1.69500   0.
   108.48000     1.72000   0.
   109.48500     1.74500   0.
   110.49000     1.78500   0.
   111.49000     1.83000   0.
   112.49000     1.84500   0.
   113.49000     1.83500   0.
   114.49000     1.83500   0.
   115.49000     1.84500   0.
   116.49000     1.85500   0.
   117.49000     1.86000   0.
   118.49000     1.84500   0.
   119.49000     1.82000   0.
   120.49000     1.83500   0.
   121.49000     1.88500   0.
   122.49000     1.93500   0.
   123.49000     1.99500   0.
   124.49000     2.08500   0.
   125.48500     2.19500   0.
   126.48000     2.29500   0.
   127.68746     2.34000   0.
   128.67523     2.34000   0.
   130.05439     2.34000   0.
    -3.37000    -5.00000   0.
    -0.11000    -4.96000   0.
     3.15000    -4.87500   0.
     6.41500    -4.82500   0.
     9.68000    -4.90500   0.
    12.94000    -5.06000   0.
    16.20000    -5.12500   0.
    19.46000    -5.09500   0.
    22.72000    -5.04000   0.
    25.98000    -4.96000   0.
    29.24500    -4.88000   0.
    32.51000    -4.79500   0.
    35.77000    -4.66500   0.
    39.03000    -4.53000   0.
    42.29000    -4.34500   0.
    45.55000    -4.14000   0.
    48.81000    -4.09000   0.
    52.07000    -4.10500   0.
    55.33500    -4.14500   0.
    58.60000    -4.20000   0.
[...]
POINT_DATA      2188
CELL_DATA      4025
SCALARS Resistivity(ohm.m) double 1
LOOKUP_TABLE default
           424.57728           447.58609           457.62031           438.70152           440.14494           309.40452           436.98767           437.92909           435.00469           421.59990           341.80632           733.35180           438.73925           434.50356           441.90006           529.05928           444.72561           432.55834           341.61594           439.43808           433.30619           650.81033           423.59659           399.00425           435.71092           349.15618           537.24596           270.59028           543.75501           191.99883           275.79852           447.18813           446.14599           435.13243           291.19660           525.08964           711.70385           700.73200           227.55096           433.18932           378.30728           688.58147         17894.53831           552.29245           434.13515           438.45067           561.26277           295.19081           453.68440           354.14388           434.86961           422.17673           294.58438           170.35749           313.81958           714.37014           422.12109           561.45460           344.07443           499.86285           438.14718           432.68136           434.65614           328.86529           434.58936          8443.69425           200.51213           452.13262           836.06135           432.57584           516.12781           878.18852           390.80961           350.57297           299.15263           397.29370           475.64736           314.47467           760.17824           516.54711           426.32097           789.30047           432.60935           268.19885           938.03406           432.69130           198.12614           431.89919           210.05294           316.63537           388.13751           437.93158           436.08568           433.03664           204.52713           504.56024           436.54155           516.60450           437.88941           487.68588           442.13586           449.39704           547.17441           571.29716          1285.04964           557.90919           436.80751           440.67360           450.44751           439.53288           355.14409           448.95669           434.20508           407.28379           438.20474           866.72494          5658.55997           432.65587           436.05060           478.63106           327.14964           448.85692           442.34129           310.70408           209.50766           456.98622           598.72624           687.70126           830.46705           434.80747           698.24119           332.75954           488.82177           420.34078           204.02959           440.86154           459.22612           449.93160           485.38917           470.08608           663.47490           211.25941           265.07373           246.28873           193.38835           432.65005           319.69078           646.53342           207.99137           443.76410           660.83042           804.63611           456.32267           454.19750           438.72994           477.21439           448.18730           344.56134           665.01246           486.92068           420.71376           675.60666           435.79246           636.63147           926.95568           328.36125           446.36593           439.22757           435.41323           818.49351           656.80490           433.11696           432.85983          1134.91692           216.34148           356.95621           284.12350           388.33290           443.98963           436.50073           500.81131           439.25103           253.32440           446.91453           374.15962           637.81773           888.50900           383.28052           762.15811           601.77963           322.93812           819.26110           434.94718           496.07594           321.48037           547.66754           432.54673           433.12264          1571.90636           441.03342           526.81550           216.77940           545.97398           450.51989          1165.96344           447.20927           196.63597           607.01671           463.91914           462.83673           518.06461           773.75528           649.21287           433.02442           435.13237           217.16636           476.10694           679.25521           432.83749           446.01901           571.37287           433.68592           334.39613           641.81260           985.68022           437.97530           319.81517          2865.85373           493.06776           451.76985           453.18333           609.03219           437.07213           651.13929           515.56597           453.15339           502.30568           433.59462           432.55332           823.79559           434.12669           444.66338           545.66924           466.27456           395.48878           436.91532           540.48248           440.25213           452.88597           434.10848           329.84784           493.98834           354.83460           872.79465           608.19746           375.16611           433.65739         12326.33645          1115.27031           457.05170           273.43519           638.84458           440.16123           433.05764           787.15570           433.36317           754.70371           445.92447           461.90768           505.60170           329.19756           728.53911           444.39999           772.86080           437.98503           471.60940           447.12863           648.55019           445.98967           439.67276          1343.73500           437.00304           579.49632         13400.24403           487.22684           473.55982           726.78243           433.09045           435.32567           437.14470           351.15593           413.64669           876.36516           432.86028           607.76818           555.24560           422.82846           524.86487           459.33448           277.85636           336.85162          1041.68582           451.47805           618.43119           402.58493           433.34993           549.80583           548.05103           358.63567           451.10853          1839.06778           686.82651           433.88993           650.99018           453.43771           408.39748           577.07011           202.23304           449.57794           843.54640           249.25810           433.39309           433.59363           378.93757           441.57306           447.03377           219.11141           433.56781           501.31616           435.40192           218.13578           750.74673           297.66045           869.90948           196.00050           437.49467           477.80433           433.09059           434.18535           434.53602           651.81482           432.60793           433.18661           444.78285           635.95420           432.63203           353.64483           191.50888           247.14447           435.70883           301.07851           463.70110           434.17756           450.16314           449.93887           433.64068           433.42100           432.74456          2461.65643           457.34041           320.11885           425.59142           509.60643           434.13858           509.03372           444.30162           437.30563           355.92383           438.85204           540.67870           762.81425           270.34962           326.10539           685.96458          1242.54175           228.70451           428.55984           274.53080           463.62653           625.38116           787.98530           434.99347           386.66141           530.77622           435.01936           270.59269           633.10311           426.32589           471.41957         25988.70802           896.59501           273.44332           436.49676           469.43143           309.52232           432.53722           306.12277           478.71020          1211.76274           433.53214           348.48239           485.25044           182.71027           242.91968           796.53627           491.89676           437.62952           193.68590           433.49499           437.59683           464.38713           436.92190           187.89341           432.99588           269.82027           432.75591           810.97051           335.73403           434.05582           642.54817           441.18515           439.31810           599.01476           227.80553           439.00268           470.65038           820.42694           537.15917           444.95122           635.14225           433.49741           373.51472           518.72186           528.35756           433.83642           928.32196           433.36723          1681.89520           252.62685           632.46918           523.34975           437.90607           385.89392           479.89888           442.64757           499.96827           479.35052           391.60461           380.25760           441.43282           458.80080           300.32883           193.34819           433.15538           451.51702           434.70337           211.38379           771.79692           442.06762           692.37098           567.35005           460.27470           433.88919           889.43139          1358.55948           183.38485           385.94055           435.59788           206.04169           362.55700           436.75478           213.41456           434.50212           343.15145           499.36270           892.59936           440.23766           487.02826           419.37357           444.59134           864.29255           641.98670           235.90792           436.14290           203.27391           615.10723           427.26933           430.53269           512.56056          3588.82753          1555.66191           435.83418           434.24662           414.74069           343.51439           632.39440           602.10434           664.19709           433.08823           432.93664           440.99002           335.56830           441.86589           989.98120           432.57466           376.79507           433.45188           465.78551           433.28428           437.58053           433.92608           432.55557           432.76855           432.98026           432.55504           272.07645           366.79438           420.77550           206.22843           518.54071           437.86524           353.01615           432.99853           433.01282           457.13651           278.87231           432.58965           436.25309           309.96332           444.16517           432.80022           379.14093          2025.63136           510.68935           432.81801           634.18458           560.18795           442.93352           434.17477           433.16933           406.23738           206.81844           247.16757           346.96500           247.48936           478.89617           446.33862           437.61734           481.48750           197.25065           333.96455           463.38545           580.61119           435.78052           488.71492           433.02487           468.11327           205.62196           440.35363           178.77641           428.80798           434.86609           207.55976           436.33162           322.29564           457.66425           988.90275          1270.40677           391.50991           436.94575           432.75713           220.25895           434.86409           588.19205           283.73449           496.99287           435.28448           268.50611           435.28998           433.96069           559.11232           443.06785           491.05341           432.98394           432.54084           663.17642           641.09591           432.58925           433.22410           432.67072           513.46257           821.99968          1391.36664           854.67046          1039.95575          1295.57226           439.24186           396.45488           440.57121           432.75708           431.04743           367.96728           433.34747           432.70124           433.61181           358.88269           220.62295           401.90992           433.26455           432.53351           432.80570           322.05901           432.81622           401.37853           763.44925           432.86457           434.18382           437.15483           439.11563           661.10673           460.31031           314.92182           433.90517           432.84522           437.80222           717.31460          2049.77686           783.44312           433.39687           723.52462           302.62840           432.84803           464.20849           732.54209           482.13759           432.55168           432.54478           436.04756           434.13985           432.66150           433.28910           432.54435           273.07419           267.51467           444.19399           673.87764           315.99986           302.75836           665.62310          4472.13641           432.81102           272.53622           470.66608           476.13480           709.40291           433.69342           446.20613           238.92059           433.54015           262.17593           301.13062           774.91361           267.74403           500.24246           433.37255           489.06317           463.27776           432.88957           432.96537           350.77872           399.96124           552.03123           432.56628           453.09250           433.11203           309.41645           498.22238           433.08240           432.80831           432.60230           598.43034           454.13360           829.14487           433.52256           855.91048           628.47486           543.59055           539.15045           432.95912           677.99078           434.68151           746.11359           877.41433           478.61316           435.83488           433.27655           434.32242           432.79969           432.98246           434.21743           748.39872           798.78999          1347.91497           605.68512           175.09666           431.33495           433.63026           433.03631           432.85514           256.94238           433.52036           310.08300           445.39991           434.65830           386.28432           433.90202           209.01474           510.04637           752.64395           424.14798           385.31453           409.84435           779.57216           432.88547           176.69175           433.41431           432.52220           432.53000           480.60168           433.40090           432.79666           435.76578           468.78522           418.59661           702.65415          7830.56318           412.94730           433.40776           449.44403           436.70123           759.90650           445.88333           530.93119           368.62531           432.58405           693.83392           391.49074           437.00027           479.74925           395.83496           434.35003           390.70070           634.34725           433.26378           416.82489           480.25991           436.81223           245.70825           432.88647           426.50862           606.87328           433.11224           440.55512           431.17694           450.23903           456.92910           405.63014           433.44570           436.57431           445.95045           440.24901           785.47374         68431.36673           433.46450           220.74786           448.56394           710.96201           303.70620           917.85679           606.91966           492.34732           385.33496           440.37937           584.70781           432.65666           432.79026           235.00398           434.92544           250.49561           505.90368           346.19486           437.85528           539.95107           433.43322           651.73516           590.12425           433.84549           251.44925           282.17474           557.06748           436.09408           462.63881           290.31050           434.64897           595.07416           671.43176           578.70481           422.32435           437.76598           253.44821           433.28625           312.18128           484.82789           459.46554           429.35573           467.72786           433.30147           466.53730           432.42390           432.97799           260.73022           432.78822           334.66392           247.16948           564.59896          1144.28735           432.61619           440.20078          1040.44718           480.78297           433.69648           356.94315           452.18115           287.67200           433.94800           362.96554           328.50990           433.60410          1041.13889           432.71141           197.62551           942.41608           461.88783           433.05526           397.83299           280.83161           435.12922           435.15319           280.47972           432.92251           332.49718           461.72866           656.33888           432.58077           433.62107           437.40542          1043.46428           489.63030           917.56978           591.65958           338.84757           439.16940           457.35878           325.86170           469.31963           433.36616           799.69214           438.18110           500.55906           696.63457           322.60467           618.67019           432.84947           432.71403           434.44655           466.44156           548.32440           450.54545           833.19287           461.33152           390.21468           433.19141           305.81965           327.75490           432.85317           448.26264           849.70143           432.52596           460.99444           442.67941           432.80082           432.61868           445.05720           463.83043           556.03671           306.29382           441.61466           484.36306           265.34096           340.29500           561.10821           433.77620           413.47148           757.62208           433.58201           737.63507           432.93012           382.51558           432.86675           436.26941          1399.53103           432.83003           966.52942           407.89136           433.47825           273.64454           433.34879           434.03583           452.48373           434.80502           436.73403           436.20160           454.51632           485.67089          2168.69354           433.11696           710.98678           428.23766          1450.83909          1288.08650          1049.08817           586.95887          1029.53744           467.95746           432.86219           435.43915           754.79433           434.50978           720.93123           438.87417           432.81491           415.91088           408.06281           376.40662           434.64651           433.54468           328.72497           435.59923           854.96371           448.01034           433.18379           433.93069           434.60231           436.01707           444.41818           432.63577           580.22091           685.09153           433.85150           432.82636           486.00563           434.50114           642.50343           558.27680           432.84785           432.52790           424.57827           433.21932           227.04422           454.42994           430.35636           471.43779           432.95536           781.20546           419.69033           435.56713           434.28522           442.54077           549.55091           432.55654           525.63792           433.59831           759.50956           428.16262           791.30712           243.96176           316.67171           279.37562           246.24014           432.53612           793.32460           346.06382           950.99654           432.53738           274.01123  