# vtk DataFile Version 3.0
Output from R2
ASCII
DATASET UNSTRUCTURED_GRID
POINTS       2188 double
    -5.00000     0.00000   0.
     0.00000     0.00000   0.
     1.00000     0.05000   0.
     2.00000     0.10000   0.
     3.00000     0.12000   0.
     4.00000     0.14000   0.
     5.00000     0.18000   0.
     6.00000     0.22000   0.
     7.00000     0.20000   0.
     8.00000     0.18000   0.
     9.00000     0.11000   0.
    10.00000     0.05000   0.
    11.00000     0.02000   0.
    12.00000    -0.01000   0.
    13.00000    -0.06000   0.
    14.00000    -0.11000   0.
    15.00000    -0.15000   0.
    16.00000    -0.19000   0.
    17.00000    -0.15000   0.
    18.00000    -0.11000   0.
    19.00000    -0.05000   0.
    20.00000     0.00000   0.
    21.00000    -0.07000   0.
    22.00000    -0.13000   0.
    23.00000    -0.08000   0.
    24.00000    -0.03000   0.
    25.00000     0.03000   0.
    26.00000     0.09000   0.
    27.00000     0.09000   0.
    28.00000     0.09000   0.
    29.00000     0.12000   0.
    30.00000     0.15000   0.
    31.00000     0.16000   0.
    32.00000     0.16000   0.
    33.00000     0.21000   0.
    34.00000     0.26000   0.
    35.00000     0.24000   0.
    36.00000     0.22000   0.
    37.00000     0.35000   0.
    37.99000     0.48000   0.
    38.99000     0.48000   0.
    39.99000     0.48000   0.
    40.99000     0.55000   0.
    41.99000     0.62000   0.
    42.98000     0.73000   0.
    43.98000     0.78000   0.
    44.98000     0.83000   0.
    45.98000     0.88000   0.
    46.98000     0.93000   0.
    47.98000     0.98000   0.
    48.98000     0.94000   0.
    49.98000     0.90000   0.
    50.98000     0.86000   0.
    51.98000     0.82000   0.
    52.98000     0.88000   0.
    53.98000     0.93000   0.
    54.98000     0.89000   0.
    55.98000     0.85000   0.
    56.98000     0.80000   0.
    57.98000     0.75000   0.
    58.98000     0.78000   0.
    59.98000     0.80000   0.
    60.98000     0.80000   0.
    61.98000     0.80000   0.
    62.99000     0.81000   0.
    63.99000     0.82000   0.
    64.99000     0.81000   0.
    65.99000     0.81000   0.
    66.99000     0.83000   0.
    67.99000     0.85000   0.
    68.99000     0.87000   0.
    69.99000     0.90000   0.
    70.99000     1.00000   0.
    71.98000     1.10000   0.
    72.98000     1.20000   0.
    73.98000     1.29000   0.
    74.98000     1.34000   0.
    75.97000     1.40000   0.
    76.97000     1.46000   0.
    77.97000     1.51000   0.
    78.97000     1.41000   0.
    79.97000     1.32000   0.
    80.97000     1.37000   0.
    81.97000     1.42000   0.
    82.97000     1.37000   0.
    83.97000     1.32000   0.
    84.97000     1.35000   0.
    85.97000     1.37000   0.
    86.97000     1.40000   0.
    87.97000     1.42000   0.
    88.97000     1.39000   0.
    89.97000     1.37000   0.
    90.97000     1.42000   0.
    91.97000     1.47000   0.
    92.97000     1.48000   0.
    93.97000     1.49000   0.
    94.97000     1.50000   0.
    95.98000     1.50000   0.
    96.98000     1.52000   0.
    97.98000     1.54000   0.
    98.98000     1.54000   0.
    99.98000     1.54000   0.
   100.98000     1.58000   0.
   101.98000     1.61000   0.
   102.98000     1.60000   0.
   103.98000     1.59000   0.
   104.98000     1.62000   0.
   105.98000     1.64000   0.
   106.98000     1.68000   0.
   107.98000     1.71000   0.
   108.98000     1.73000   0.
   109.99000     1.76000   0.
   110.99000     1.81000   0.
   111.99000     1.85000   0.
   112.99000     1.84000   0.
   113.99000     1.83000   0.
   114.99000     1.84000   0.
   115.99000     1.85000   0.
   116.99000     1.86000   0.
   117.99000     1.86000   0.
   118.99000     1.83000   0.
   119.99000     1.81000   0.
   120.99000     1.86000   0.
   121.99000     1.91000   0.
   122.99000     1.96000   0.
   123.99000     2.03000   0.
   124.99000     2.14000   0.
   125.98000     2.25000   0.
   126.98000     2.34000   0.
   131.98000     2.34000   0.
    -5.00000    -5.00000   0.
    -1.74000    -5.00000   0.
     1.52000    -4.92000   0.
     4.78000    -4.83000   0.
     8.05000    -4.82000   0.
    11.31000    -4.99000   0.
    14.57000    -5.13000   0.
    17.83000    -5.12000   0.
    21.09000    -5.07000   0.
    24.35000    -5.01000   0.
    27.61000    -4.91000   0.
    30.88000    -4.85000   0.
    34.14000    -4.74000   0.
    37.40000    -4.59000   0.
    40.66000    -4.47000   0.
    43.92000    -4.22000   0.
    47.18000    -4.06000   0.
    50.44000    -4.12000   0.
    53.70000    -4.09000   0.
    56.97000    -4.20000   0.
    60.23000    -4.20000   0.
    63.49000    -4.18000   0.
    66.75000    -4.17000   0.
    70.01000    -4.10000   0.
    73.27000    -3.77000   0.
    76.53000    -3.57000   0.
    79.79000    -3.66000   0.
    83.06000    -3.64000   0.
    86.32000    -3.62000   0.
    89.58000    -3.62000   0.
    92.84000    -3.52000   0.
    96.10000    -3.50000   0.
    99.36000    -3.46000   0.
   102.62000    -3.40000   0.
   105.89000    -3.36000   0.
   109.15000    -3.26000   0.
   112.41000    -3.16000   0.
   115.67000    -3.15000   0.
   118.93000    -3.17000   0.
   122.19000    -3.08000   0.
   125.45000    -2.81000   0.
   128.71000    -2.66000   0.
   131.98000    -2.66000   0.
  -639.88000     0.00000   0.
  -639.88000  -385.93000   0.
   766.86000     2.34000   0.
   766.86000  -385.93000   0.
    -3.07439     0.00000   0.
    -1.69523     0.00000   0.
    -0.70746     0.00000   0.
     0.50000     0.02500   0.
     1.50000     0.07500   0.
     2.50000     0.11000   0.
     3.50000     0.13000   0.
     4.50000     0.16000   0.
     5.50000     0.20000   0.
     6.50000     0.21000   0.
     7.50000     0.19000   0.
     8.50000     0.14500   0.
     9.50000     0.08000   0.
    10.50000     0.03500   0.
    11.50000     0.00500   0.
    12.50000    -0.03500   0.
    13.50000    -0.08500   0.
    14.50000    -0.13000   0.
    15.50000    -0.17000   0.
    16.50000    -0.17000   0.
    17.50000    -0.13000   0.
    18.50000    -0.08000   0.
    19.50000    -0.02500   0.
    20.50000    -0.03500   0.
    21.50000    -0.10000   0.
    22.50000    -0.10500   0.
    23.50000    -0.05500   0.
    24.50000     0.00000   0.
    25.50000     0.06000   0.
    26.50000     0.09000   0.
    27.50000     0.09000   0.
    28.50000     0.10500   0.
    29.50000     0.13500   0.
    30.50000     0.15500   0.
    31.50000     0.16000   0.
    32.50000     0.18500   0.
    33.50000     0.23500   0.
    34.50000     0.25000   0.
    35.50000     0.23000   0.
    36.50000     0.28500   0.
    37.49500     0.41500   0.
    38.49000     0.48000   0.
    39.49000     0.48000   0.
    40.49000     0.51500   0.
    41.49000     0.58500   0.
    42.48500     0.67500   0.
    43.48000     0.75500   0.
    44.48000     0.80500   0.
    45.48000     0.85500   0.
    46.48000     0.90500   0.
    47.48000     0.95500   0.
    48.48000     0.96000   0.
    49.48000     0.92000   0.
    50.48000     0.88000   0.
    51.48000     0.84000   0.
    52.48000     0.85000   0.
    53.48000     0.90500   0.
    54.48000     0.91000   0.
    55.48000     0.87000   0.
    56.48000     0.82500   0.
    57.48000     0.77500   0.
    58.48000     0.76500   0.
    59.48000     0.79000   0.
    60.48000     0.80000   0.
    61.48000     0.80000   0.
    62.48500     0.80500   0.
    63.49000     0.81500   0.
    64.49000     0.81500   0.
    65.49000     0.81000   0.
    66.49000     0.82000   0.
    67.49000     0.84000   0.
    68.49000     0.86000   0.
    69.49000     0.88500   0.
    70.49000     0.95000   0.
    71.48500     1.05000   0.
    72.48000     1.15000   0.
    73.48000     1.24500   0.
    74.48000     1.31500   0.
    75.47500     1.37000   0.
    76.47000     1.43000   0.
    77.47000     1.48500   0.
    78.47000     1.46000   0.
    79.47000     1.36500   0.
    80.47000     1.34500   0.
    81.47000     1.39500   0.
    82.47000     1.39500   0.
    83.47000     1.34500   0.
    84.47000     1.33500   0.
    85.47000     1.36000   0.
    86.47000     1.38500   0.
    87.47000     1.41000   0.
    88.47000     1.40500   0.
    89.47000     1.38000   0.
    90.47000     1.39500   0.
    91.47000     1.44500   0.
    92.47000     1.47500   0.
    93.47000     1.48500   0.
    94.47000     1.49500   0.
    95.47500     1.50000   0.
    96.48000     1.51000   0.
    97.48000     1.53000   0.
    98.48000     1.54000   0.
    99.48000     1.54000   0.
   100.48000     1.56000   0.
   101.48000     1.59500   0.
   102.48000     1.60500   0.
   103.48000     1.59500   0.
   104.48000     1.60500   0.
   105.48000     1.63000   0.
   106.48000     1.66000   0.
   107.48000     1.69500   0.
   108.48000     1.72000   0.
   109.48500     1.74500   0.
   110.49000     1.78500   0.
   111.49000     1.83000   0.
   112.49000     1.84500   0.
   113.49000     1.83500   0.
   114.49000     1.83500   0.
   115.49000     1.84500   0.
   116.49000     1.85500   0.
   117.49000     1.86000   0.
   118.49000     1.84500   0.
   119.49000     1.82000   0.
   120.49000     1.83500   0.
   121.49000     1.88500   0.
   122.49000     1.93500   0.
   123.49000     1.99500   0.
   124.49000     2.08500   0.
   125.48500     2.19500   0.
   126.48000     2.29500   0.
   127.68746     2.34000   0.
   128.67523     2.34000   0.
   130.05439     2.34000   0.
    -3.37000    -5.00000   0.
    -0.11000    -4.96000   0.
     3.15000    -4.87500   0.
     6.41500    -4.82500   0.
     9.68000    -4.90500   0.
    12.94000    -5.06000   0.
    16.20000    -5.12500   0.
    19.46000    -5.09500   0.
    22.72000    -5.04000   0.
    25.98000    -4.96000   0.
    29.24500    -4.88000   0.
    32.51000    -4.79500   0.
    35.77000    -4.66500   0.
    39.03000    -4.53000   0.
    42.29000    -4.34500   0.
    45.55000    -4.14000   0.
    48.81000    -4.09000   0.
    52.07000    -4.10500   0.
    55.33500    -4.14500   0.
    58.60000    -4.20000   0.
[...]
POINT_DATA      2188
CELL_DATA      4025
SCALARS Resistivity(ohm.m) double 1
LOOKUP_TABLE default
           403.87109           436.16593           553.84373           462.69157           476.98881           409.24268           450.16222           451.21260           436.29985           398.46663           327.11180           684.15555           466.98995           433.69683           434.82485           707.91419           470.85130           434.76139           330.84749           427.19918           434.74786           562.33515           397.11719           369.09804           447.65081           355.96890           829.51101           266.59138           765.54417           202.79529           441.25512           503.98143           470.75324           458.30648           270.52904           410.20664           655.81280           673.19038           224.66743           434.70665           348.53231           821.77835         16869.68072           722.72001           440.72788           464.93308           601.88406           271.60252           513.68024           345.39001           434.71413           393.01722           308.85253           177.21776           351.14631           716.88339           399.10259           446.80829           342.93498           493.79718           455.70134           436.03551           439.89074           341.59148           436.77612         11056.71370           192.93129           546.77751           797.02805           434.84765           721.00038           650.93165           316.54138           345.84917           286.66785           367.12623           472.41473           352.96267           598.61079           768.79328           393.34430           471.72576           435.64787           226.58894           862.78911           435.19802           216.55191           420.94320           213.58995           296.54236           337.36699           444.85472           468.07638           435.08297           213.04511           594.06801           451.16224           471.66792           460.82926           449.23127           465.80547           434.58099           616.18834           634.87700          1111.34517           446.84886           472.25932           476.78382           511.45574           423.29191           342.01624           534.30479           441.47415           364.02793           458.05783           646.32666          8850.90903           423.47847           447.20747           393.21565           437.98977           496.72622           504.97854           218.42699           221.72033           545.43423           462.60918           571.68202           784.46439           458.86027           652.51507           351.07930           543.84714           396.29924           200.64081           469.35424           502.05151           489.36839           522.55434           512.53063           539.11992           204.13993           235.76968           260.64773           220.55220           435.18958           371.92745           804.75169           228.48628           490.05368           703.73409           600.91176           452.12083           436.12879           485.73826           400.22016           491.80861           381.01506           806.53309           662.64587           302.36577           679.17837           461.12411           459.01339           659.32855           228.80528           476.50134           462.08982           458.95397           825.77548           518.83676           436.16141           436.77255           953.98095           318.11549           351.77189           304.98199           497.39602           478.77340           461.52242           581.19576           465.52514           233.05866           667.88970           348.61840           718.99756           666.93084           381.85042           767.54711           761.79786           326.65531           834.67586           459.45042           658.77966           402.38858           850.68312           434.78792           435.80794          3019.05007           465.88258           455.20836           375.58295           455.19183           442.61736           803.55206           572.46324           230.69358           518.42582           514.18606           517.14160           744.02593           603.18976           538.52612           448.57989           445.55790           218.50652           526.50750           693.92042           355.20848           481.04845           766.41963           451.74347           318.82354           546.22856           796.74625           432.89294           336.88361          4906.79174           636.57776           426.71634           543.21905           695.18284           465.14058           524.64815           541.32564           508.12290           418.57600           439.49051           435.26394           803.73035           454.29700           475.70717           621.55229           476.98635           425.52424           463.25048           813.95633           448.25836           491.37890           453.69864           297.03220           557.41611           356.46598           875.04337           521.25064           481.69141           434.91134         12988.53560          1033.35108           509.19035           273.18826           499.64463           436.01135           448.76854           683.55972           438.80553           772.99513           513.19995           501.64560           654.96643           295.40816          1331.01248           514.37717           618.38635           468.52376           425.86784           524.53856           725.62979           441.27068           491.40885          2282.06745           444.24688           490.69459         15381.02587           516.47837           510.60681           569.89181           435.33073           458.34750           471.81210           342.83190           386.60086           620.22271           436.88788           659.09669           606.95103           361.94909           557.36585           396.26723           276.45281           235.95486           628.41541           496.45303           486.68005           446.33974           450.07413           455.66975           501.87263           342.17721           475.75623          3218.15122          1197.69568           440.59645           683.55120           409.62380           379.63847           633.61789           198.56966           476.48494           863.74716           346.81926           450.23543           451.28508           273.84590           472.83178           513.15343           208.34515           431.39582           706.12692           462.23233           214.05659           593.22120           231.61773           631.92216           208.15276           456.71365           502.58555           448.54816           454.58772           455.45255           569.69880           434.81464           449.02588           483.06291           546.15838           434.88104           423.92811           225.91481           241.57679           463.30134           258.59924           575.19493           453.90717           413.04411           506.52503           432.00634           450.39517           434.98064          4470.78498           459.45445           356.42413           385.75762           482.96028           436.07896           429.13562           438.63757           434.76961           394.17278           473.15532           710.99517           540.25388           343.96852           244.50375           705.18116          1751.21301           231.96921           411.25332           272.67346           426.62833           440.39569           715.16506           457.47566           386.06705           587.53424           460.69431           285.61866           597.31621           406.37627           593.57032         19425.91006           665.39040           259.85945           467.36377           632.31769           342.04035           435.08823           386.02909           629.51137          2355.24801           435.36189           337.34005           571.72619           213.98593           250.02063           723.43830           353.39579           461.56569           339.49709           432.29310           462.67581           409.34190           453.79993           226.45480           425.34396           230.92604           436.49968           641.34540           301.47260           409.04246           850.41419           481.64183           457.07415           476.12626           210.53226           447.64110           537.87965           675.86429           768.68981           409.01032           547.16275           450.79770           347.60520           479.94496           593.74843           429.62750           900.63509           427.26330          2604.54372           248.33730           527.08127           458.31908           448.95886           356.88157           570.02579           479.34487           525.15069           600.28101           360.92092           352.75628           498.93938           527.77812           374.05189           216.71642           426.73605           525.99013           456.61747           401.77921           595.31498           470.15556           658.69055           463.92974           360.01813           436.44115          1592.59987          2646.57834           214.32623           415.57288           464.37619           385.56431           387.36586           517.86249           235.29732           455.21141           331.09253           427.07042           876.71812           416.72721           406.16395           394.44375           465.40601           671.08637           774.31710           245.49800           433.51315           251.78467           717.98804           409.08776           415.54857           455.70680          5982.50634          3021.51119           459.76317           442.19378           420.43517           339.19733           612.42259           528.11266           515.72630           434.85758           447.82599           461.09747           300.06294           460.79599           951.76073           434.70372           330.96816           428.47933           551.76311           449.64240           458.59984           434.99095           434.62652           435.15273           436.07254           435.34370           333.17179           367.84747           363.22048           362.40636           612.63264           401.18135           338.90353           437.55399           448.20463           427.63713           322.69930           434.77654           462.42190           308.32907           493.74363           435.01627           351.12447          3451.14739           579.59935           447.46578           548.59759           857.71030           482.20988           453.77591           438.22997           418.98712           199.65827           252.36650           370.09466           225.61810           463.04196           495.61368           480.21573           625.85748           198.06012           364.87507           466.84255           540.50022           434.85216           499.39868           448.32865           493.85118           231.63909           465.24240           214.69370           405.53650           427.80210           233.92076           427.83046           319.52653           515.14174           928.74980          1051.48234           361.66152           461.91362           435.37608           239.35220           456.63650           348.06297           275.44498           541.87163           430.84885           254.14581           460.74378           453.30389           465.50506           424.87200           491.05914           448.42577           434.73952          1174.57912          1096.45394           434.83956           449.44987           436.07338           535.26191           770.01114           971.37710           891.99582           835.37169           828.54331           486.39785           366.23934           473.39529           436.46137           418.12716           302.42568           435.17935           434.97224           435.98662           328.39214           231.96237           363.19639           449.72412           434.78422           447.44055           306.41312           447.37452           371.32073           794.63745           437.00361           433.47908           452.26153           454.75026           534.63369           475.05522           224.90789           440.87299           447.39689           465.55913          1298.76367          3053.29562           594.37121           434.35630           681.28178           306.19296           447.74015           397.92714           611.81869           555.63943           434.62322           434.89539           461.35620           430.51720           434.91236           449.52458           434.67936           249.91355           246.27527           501.69187           741.45228           301.55604           414.18348           522.73563          7123.27914           447.53346           260.03279           583.16762           489.68941           558.86004           451.71076           465.09568           225.00937           450.85035           253.24029           273.96232           760.92083           405.65823           455.87543           438.95866           465.46404           580.92142           447.99143           448.28171           388.21193           369.74423           880.91915           435.47740           459.76585           448.96685           393.04415           549.16211           448.81596           447.59140           435.68777           625.05584           551.40637          1563.73935           431.57300          1460.06131           490.44647           445.03455           441.06336           448.08962           533.90519           457.64724           567.06076           870.97157           472.63280           424.27379           436.62936           454.81373           447.50231           434.87300           455.03388           771.46066           656.77999          1908.56587           638.68923           209.34696           418.15988           451.30988           435.49638           434.98257           298.51917           434.35673           287.54214           446.37228           458.28984           410.47629           452.56209           245.95595           529.60677           672.46211           641.19220           356.08555           381.23523           843.85697           425.13555           212.26947           450.18012           435.06203           434.86149           451.00141           433.42489           447.53777           468.02377           529.32271           383.48217           737.53633         11069.66495           385.67076           450.39644           470.50714           475.35690           694.89270           491.23801           819.51679           345.67016           435.08374           584.62168           455.39175           475.73818           498.36078           351.46315           455.67246           346.54573           617.77351           434.18936           390.81862           655.78281           423.41961           245.07186           447.96478           407.56600           566.78114           434.64808           440.29160           418.80891           483.56717           570.12186           376.11097           429.29972           478.79100           523.39861           496.14344           670.36918         29609.10775           432.97397           268.96859           526.40767           617.75557           282.76857           577.14575           479.20783           533.10288           355.39668           456.26237           733.42839           435.38054           435.32263           241.45501           460.35104           241.38324           309.66485           358.65472           469.12488           577.36435           450.30964           691.07737           943.16232           452.61859           235.40018           278.38413           483.15472           436.89912           558.60174           309.30070           437.93807           627.73301          1137.56879           956.29921           399.69439           437.86137           244.69728           437.06752           313.95069           550.77951           534.30346           413.83450           500.29640           449.93262           497.72757           423.16572           436.37092           251.60105           435.82987           309.90492           225.02769           542.97109          2000.80156           435.29375           470.90772           972.97715           556.62733           451.87522           320.14321           483.55867           289.16150           437.24730           342.90387           356.91723           451.24640          1395.27395           435.05111           217.77722           929.86683           585.99811           434.79052           350.85373           361.65507           434.10853           462.50981           323.05274           434.97111           345.35309           447.24603           507.39013           435.30429           451.50084           479.88580           973.77534           686.77976          1180.24457           622.11954           309.80257           470.49903           400.56041           306.89365           443.33781           428.21316           589.57605           484.79443           724.09729           512.47299           334.61371           674.89696           447.66198           435.68645           456.60260           606.27677           522.35975           543.78798           628.80546           586.52809           340.22078           449.40635           286.75337           325.73602           447.81944           533.28453           823.37647           435.01135           481.99440           508.29045           435.63168           435.44751           459.80675           529.47984           476.35301           277.07666           502.77457           444.31880           251.32651           374.25755           520.47862           439.07030           386.04778           631.92802           429.84519           742.12970           448.10485           586.52848           436.19819           442.11647          1086.35274           447.34078          1859.80147           379.19102           450.79502           302.36482           433.86196           453.65186           648.10656           458.15464           467.48712           471.45577           466.70709           493.85607          4089.11132           436.87344           631.36353           395.89749           999.82243           938.46637           941.19406           683.92594           979.20660           605.47656           447.55878           461.14930           719.05693           456.40317          1233.31890           476.85615           435.10826           377.64590           385.71324           328.89427           443.60437           451.09323           321.96874           441.63474           865.74915           453.50995           434.51510           452.99511           456.75036           444.55022           499.69331           434.94390           633.16780           490.92481           452.65677           447.66514           444.24697           456.82787           640.50748           685.73919           447.79644           435.21601           403.81433           435.42875           216.77353           406.30617           416.38613           555.50404           423.97576           643.36395           395.26317           437.39044           438.02095           444.55495           543.32741           434.68013           665.64992           427.83553           740.76596           411.05422           741.26407           250.60896           306.71940           297.85739           229.73934           434.91552          1051.44146           452.19036          1595.22560           435.25333           344.38708  