# vtk DataFile Version 3.0
Output from R2
ASCII
DATASET UNSTRUCTURED_GRID
POINTS       2188 double
    -5.00000     0.00000   0.
     0.00000     0.00000   0.
     1.00000     0.05000   0.
     2.00000     0.10000   0.
     3.00000     0.12000   0.
     4.00000     0.14000   0.
     5.00000     0.18000   0.
     6.00000     0.22000   0.
     7.00000     0.20000   0.
     8.00000     0.18000   0.
     9.00000     0.11000   0.
    10.00000     0.05000   0.
    11.00000     0.02000   0.
    12.00000    -0.01000   0.
    13.00000    -0.06000   0.
    14.00000    -0.11000   0.
    15.00000    -0.15000   0.
    16.00000    -0.19000   0.
    17.00000    -0.15000   0.
    18.00000    -0.11000   0.
    19.00000    -0.05000   0.
    20.00000     0.00000   0.
    21.00000    -0.07000   0.
    22.00000    -0.13000   0.
    23.00000    -0.08000   0.
    24.00000    -0.03000   0.
    25.00000     0.03000   0.
    26.00000     0.09000   0.
    27.00000     0.09000   0.
    28.00000     0.09000   0.
    29.00000     0.12000   0.
    30.00000     0.15000   0.
    31.00000     0.16000   0.
    32.00000     0.16000   0.
    33.00000     0.21000   0.
    34.00000     0.26000   0.
    35.00000     0.24000   0.
    36.00000     0.22000   0.
    37.00000     0.35000   0.
    37.99000     0.48000   0.
    38.99000     0.48000   0.
    39.99000     0.48000   0.
    40.99000     0.55000   0.
    41.99000     0.62000   0.
    42.98000     0.73000   0.
    43.98000     0.78000   0.
    44.98000     0.83000   0.
    45.98000     0.88000   0.
    46.98000     0.93000   0.
    47.98000     0.98000   0.
    48.98000     0.94000   0.
    49.98000     0.90000   0.
    50.98000     0.86000   0.
    51.98000     0.82000   0.
    52.98000     0.88000   0.
    53.98000     0.93000   0.
    54.98000     0.89000   0.
    55.98000     0.85000   0.
    56.98000     0.80000   0.
    57.98000     0.75000   0.
    58.98000     0.78000   0.
    59.98000     0.80000   0.
    60.98000     0.80000   0.
    61.98000     0.80000   0.
    62.99000     0.81000   0.
    63.99000     0.82000   0.
    64.99000     0.81000   0.
    65.99000     0.81000   0.
    66.99000     0.83000   0.
    67.99000     0.85000   0.
    68.99000     0.87000   0.
    69.99000     0.90000   0.
    70.99000     1.00000   0.
    71.98000     1.10000   0.
    72.98000     1.20000   0.
    73.98000     1.29000   0.
    74.98000     1.34000   0.
    75.97000     1.40000   0.
    76.97000     1.46000   0.
    77.97000     1.51000   0.
    78.97000     1.41000   0.
    79.97000     1.32000   0.
    80.97000     1.37000   0.
    81.97000     1.42000   0.
    82.97000     1.37000   0.
    83.97000     1.32000   0.
    84.97000     1.35000   0.
    85.97000     1.37000   0.
    86.97000     1.40000   0.
    87.97000     1.42000   0.
    88.97000     1.39000   0.
    89.97000     1.37000   0.
    90.97000     1.42000   0.
    91.97000     1.47000   0.
    92.97000     1.48000   0.
    93.97000     1.49000   0.
    94.97000     1.50000   0.
    95.98000     1.50000   0.
    96.98000     1.52000   0.
    97.98000     1.54000   0.
    98.98000     1.54000   0.
    99.98000     1.54000   0.
   100.98000     1.58000   0.
   101.98000     1.61000   0.
   102.98000     1.60000   0.
   103.98000     1.59000   0.
   104.98000     1.62000   0.
   105.98000     1.64000   0.
   106.98000     1.68000   0.
   107.98000     1.71000   0.
   108.98000     1.73000   0.
   109.99000     1.76000   0.
   110.99000     1.81000   0.
   111.99000     1.85000   0.
   112.99000     1.84000   0.
   113.99000     1.83000   0.
   114.99000     1.84000   0.
   115.99000     1.85000   0.
   116.99000     1.86000   0.
   117.99000     1.86000   0.
   118.99000     1.83000   0.
   119.99000     1.81000   0.
   120.99000     1.86000   0.
   121.99000     1.91000   0.
   122.99000     1.96000   0.
   123.99000     2.03000   0.
   124.99000     2.14000   0.
   125.98000     2.25000   0.
   126.98000     2.34000   0.
   131.98000     2.34000   0.
    -5.00000    -5.00000   0.
    -1.74000    -5.00000   0.
     1.52000    -4.92000   0.
     4.78000    -4.83000   0.
     8.05000    -4.82000   0.
    11.31000    -4.99000   0.
    14.57000    -5.13000   0.
    17.83000    -5.12000   0.
    21.09000    -5.07000   0.
    24.35000    -5.01000   0.
    27.61000    -4.91000   0.
    30.88000    -4.85000   0.
    34.14000    -4.74000   0.
    37.40000    -4.59000   0.
    40.66000    -4.47000   0.
    43.92000    -4.22000   0.
    47.18000    -4.06000   0.
    50.44000    -4.12000   0.
    53.70000    -4.09000   0.
    56.97000    -4.20000   0.
    60.23000    -4.20000   0.
    63.49000    -4.18000   0.
    66.75000    -4.17000   0.
    70.01000    -4.10000   0.
    73.27000    -3.77000   0.
    76.53000    -3.57000   0.
    79.79000    -3.66000   0.
    83.06000    -3.64000   0.
    86.32000    -3.62000   0.
    89.58000    -3.62000   0.
    92.84000    -3.52000   0.
    96.10000    -3.50000   0.
    99.36000    -3.46000   0.
   102.62000    -3.40000   0.
   105.89000    -3.36000   0.
   109.15000    -3.26000   0.
   112.41000    -3.16000   0.
   115.67000    -3.15000   0.
   118.93000    -3.17000   0.
   122.19000    -3.08000   0.
   125.45000    -2.81000   0.
   128.71000    -2.66000   0.
   131.98000    -2.66000   0.
  -639.88000     0.00000   0.
  -639.88000  -385.93000   0.
   766.86000     2.34000   0.
   766.86000  -385.93000   0.
    -3.07439     0.00000   0.
    -1.69523     0.00000   0.
    -0.70746     0.00000   0.
     0.50000     0.02500   0.
     1.50000     0.07500   0.
     2.50000     0.11000   0.
     3.50000     0.13000   0.
     4.50000     0.16000   0.
     5.50000     0.20000   0.
     6.50000     0.21000   0.
     7.50000     0.19000   0.
     8.50000     0.14500   0.
     9.50000     0.08000   0.
    10.50000     0.03500   0.
    11.50000     0.00500   0.
    12.50000    -0.03500   0.
    13.50000    -0.08500   0.
    14.50000    -0.13000   0.
    15.50000    -0.17000   0.
    16.50000    -0.17000   0.
    17.50000    -0.13000   0.
    18.50000    -0.08000   0.
    19.50000    -0.02500   0.
    20.50000    -0.03500   0.
    21.50000    -0.10000   0.
    22.50000    -0.10500   0.
    23.50000    -0.05500   0.
    24.50000     0.00000   0.
    25.50000     0.06000   0.
    26.50000     0.09000   0.
    27.50000     0.09000   0.
    28.50000     0.10500   0.
    29.50000     0.13500   0.
    30.50000     0.15500   0.
    31.50000     0.16000   0.
    32.50000     0.18500   0.
    33.50000     0.23500   0.
    34.50000     0.25000   0.
    35.50000     0.23000   0.
    36.50000     0.28500   0.
    37.49500     0.41500   0.
    38.49000     0.48000   0.
    39.49000     0.48000   0.
    40.49000     0.51500   0.
    41.49000     0.58500   0.
    42.48500     0.67500   0.
    43.48000     0.75500   0.
    44.48000     0.80500   0.
    45.48000     0.85500   0.
    46.48000     0.90500   0.
    47.48000     0.95500   0.
    48.48000     0.96000   0.
    49.48000     0.92000   0.
    50.48000     0.88000   0.
    51.48000     0.84000   0.
    52.48000     0.85000   0.
    53.48000     0.90500   0.
    54.48000     0.91000   0.
    55.48000     0.87000   0.
    56.48000     0.82500   0.
    57.48000     0.77500   0.
    58.48000     0.76500   0.
    59.48000     0.79000   0.
    60.48000     0.80000   0.
    61.48000     0.80000   0.
    62.48500     0.80500   0.
    63.49000     0.81500   0.
    64.49000     0.81500   0.
    65.49000     0.81000   0.
    66.49000     0.82000   0.
    67.49000     0.84000   0.
    68.49000     0.86000   0.
    69.49000     0.88500   0.
    70.49000     0.95000   0.
    71.48500     1.05000   0.
    72.48000     1.15000   0.
    73.48000     1.24500   0.
    74.48000     1.31500   0.
    75.47500     1.37000   0.
    76.47000     1.43000   0.
    77.47000     1.48500   0.
    78.47000     1.46000   0.
    79.47000     1.36500   0.
    80.47000     1.34500   0.
    81.47000     1.39500   0.
    82.47000     1.39500   0.
    83.47000     1.34500   0.
    84.47000     1.33500   0.
    85.47000     1.36000   0.
    86.47000     1.38500   0.
    87.47000     1.41000   0.
    88.47000     1.40500   0.
    89.47000     1.38000   0.
    90.47000     1.39500   0.
    91.47000     1.44500   0.
    92.47000     1.47500   0.
    93.47000     1.48500   0.
    94.47000     1.49500   0.
    95.47500     1.50000   0.
    96.48000     1.51000   0.
    97.48000     1.53000   0.
    98.48000     1.54000   0.
    99.48000     1.54000   0.
   100.48000     1.56000   0.
   101.48000     1.59500   0.
   102.48000     1.60500   0.
   103.48000     1.59500   0.
   104.48000     1.60500   0.
   105.48000     1.63000   0.
   106.48000     1.66000   0.
   107.48000     1.69500   0.
   108.48000     1.72000   0.
   109.48500     1.74500   0.
   110.49000     1.78500   0.
   111.49000     1.83000   0.
   112.49000     1.84500   0.
   113.49000     1.83500   0.
   114.49000     1.83500   0.
   115.49000     1.84500   0.
   116.49000     1.85500   0.
   117.49000     1.86000   0.
   118.49000     1.84500   0.
   119.49000     1.82000   0.
   120.49000     1.83500   0.
   121.49000     1.88500   0.
   122.49000     1.93500   0.
   123.49000     1.99500   0.
   124.49000     2.08500   0.
   125.48500     2.19500   0.
   126.48000     2.29500   0.
   127.68746     2.34000   0.
   128.67523     2.34000   0.
   130.05439     2.34000   0.
    -3.37000    -5.00000   0.
    -0.11000    -4.96000   0.
     3.15000    -4.87500   0.
     6.41500    -4.82500   0.
     9.68000    -4.90500   0.
    12.94000    -5.06000   0.
    16.20000    -5.12500   0.
    19.46000    -5.09500   0.
    22.72000    -5.04000   0.
    25.98000    -4.96000   0.
    29.24500    -4.88000   0.
    32.51000    -4.79500   0.
    35.77000    -4.66500   0.
    39.03000    -4.53000   0.
    42.29000    -4.34500   0.
    45.55000    -4.14000   0.
    48.81000    -4.09000   0.
    52.07000    -4.10500   0.
    55.33500    -4.14500   0.
    58.60000    -4.20000   0.
[...]
POINT_DATA      2188
CELL_DATA      4025
SCALARS Resistivity(ohm.m) double 1
LOOKUP_TABLE default
           399.54477           448.45719           462.07132           435.87622           447.47240           349.78774           427.07799           427.44419           415.46991           398.00292           364.13802           543.01591           441.21313           412.44892           413.75802           471.42232           434.34201           414.34309           364.09155           407.47685           412.54490           572.98054           393.35879           381.90931           426.52973           392.64842           493.24986           287.43853           478.43643           185.02814           353.72530           452.22752           432.84300           448.04828           306.12531           443.32058           530.39231           503.98994           174.40332           412.51984           370.41794           494.05240          6163.11000           721.90753           421.32097           439.23291           457.67590           299.93129           449.63573           373.94069           413.71337           391.37014           321.20671           271.46338           296.68184           534.86376           396.35598           462.02468           367.90150           435.12624           430.33952           417.18909           309.90367           342.16007           415.71895          2796.83766           277.21284           462.63237           554.98037           414.29283           476.26042           450.32379           390.01316           371.24444           326.68103           385.59510           460.05987           311.96879           422.21326           487.52196           348.21576           721.64786           416.84081           297.09930           553.25556           414.33862           196.44252           404.91043           170.95532           355.44564           302.26307           423.15270           454.02833           413.06500           200.90400           459.06472           428.07210           377.22218           435.62693           311.42625           433.23048           409.16077           466.71725           472.00956           698.37070           441.56334           454.30235           445.99003           451.99432           406.04060           375.32964           461.61750           422.17631           329.06372           432.29197           432.55251          2474.83792           405.98808           425.85037           428.85522           432.80179           445.85382           458.84306           211.52718           204.59031           459.08952           451.00607           569.78157           539.02527           453.11609           508.99766           402.31018           447.07977           396.32011           199.53675           438.15716           440.60623           440.72786           439.64409           440.41686           532.97303           167.62754           229.44593           236.12347           206.71469           414.47302           339.47611           488.55508           207.51017           449.30719           497.54564           475.49199           417.99048           409.71233           456.49330           338.63806           443.85845           419.31318           727.21961           474.14199           399.63955           514.91821           447.44090           468.28299           478.84971           232.02537           436.08621           434.16828           446.18503           564.80573           516.40378           415.50937           417.86486           668.98963           351.64663           374.08904           334.06072           461.18736           440.72754           442.47023           457.20446           437.67613           233.59636           631.54109           383.87957           652.15933           451.37522           282.11331           489.46409           712.03256           353.19249           561.43442           452.75959           470.64735           422.90446           495.19234           414.66623           414.63425           910.39038           434.90012           308.25092           334.22625           332.27351           415.80248           781.11034           487.79942           255.91987           546.92000           443.43912           444.76923           480.95408           407.55192           522.43373           452.07691           424.86663           213.39839           443.39928           520.00921           373.78992           439.42727           475.96929           452.20666           354.14129           456.84589           695.42822           413.25971           319.40354          1335.83949           466.56768           402.48560           461.36126           523.74669           445.66273           376.24277           439.51461           447.69675           466.92070           420.65237           416.18790           544.66184           452.18985           437.60395           467.79155           426.38853           311.91593           443.44257           487.05548           424.34676           439.24084           449.53745           321.83042           450.00251           373.00628           566.60130           509.59091           407.08278           413.17392          4195.17415           654.58856           445.54198           240.47710           349.31204           414.16034           451.72410           490.52033           420.08358           548.10966           458.32480           438.99292           467.56432           294.28250           575.21444           459.59105           426.28457           445.99265           388.83319           460.47458           492.21311           415.53347           457.26988           706.45132           422.76502           382.94252          6232.42766           436.72425           438.40020           395.11394           413.73598           445.18851           452.71567           372.43205           390.56923           484.34911           418.24259           478.47686           460.75902           329.27590           443.13675           360.57454           303.11940           326.01775           804.58087           442.79490           335.67873           343.48332           450.49990           523.29164           408.59994           377.06905           432.27306           909.54841           532.12678           421.43413           503.98034           387.10560           387.01249           470.62464           200.34911           433.80735           577.40297           333.81559           449.95240           452.01940           378.04376           439.96655           456.95319           207.02830           409.56907           477.51413           452.90137           216.94938           508.00434           216.35681           460.16019           178.93257           432.02418           433.79794           452.61857           451.66125           447.90144           439.72154           413.71398           452.57058           442.56957           445.95501           413.62124           442.11888           219.88011           321.23013           452.15560           308.82858           463.80574           448.71996           391.01543           449.97180           410.30441           452.08611           413.22329          1152.63228           421.86904           290.99090           380.29473           414.51597           415.20189           359.37030           476.13710           413.85528           368.44933           447.84465           472.13750           475.89490           347.92318           332.63175           498.36560           724.53343           186.26685           400.99140           299.21669           321.49896           472.55872           504.00558           447.16489           373.10445           456.75217           453.54054           249.49227           473.12191           399.15937           465.09193          7905.29260           461.54606           279.79066           452.11100           602.30624           374.74462           415.88065           389.11816           469.92876           765.14275           413.54426           371.26508           455.75637           198.60396           228.71529           520.43347           436.50999           437.33899           351.14392           410.13777           439.09368           328.49677           430.20761           242.62058           406.68079           248.65248           418.11919           436.27484           324.45023           398.88128           487.46563           449.01765           430.11584           341.78511           208.87538           424.23440           449.65773           488.36813           478.62182           296.47826           530.65036           450.28453           382.83440           405.08854           458.67383           409.02031           586.77007           407.52505           836.00088           320.46705           390.56331           322.88390           425.59034           387.94473           455.87935           443.57148           436.16740           463.07878           376.94713           386.03592           457.83468           451.66373           347.96331           198.04568           407.16256           457.37962           448.96516           358.33070           409.49918           436.64921           517.43649           323.65949           444.10491           415.32113           574.14989           749.93833           214.84791           312.27402           453.65322           350.26174           295.01686           557.47254           194.77018           447.19486           327.75725           365.50896           600.96576           401.28255           503.96699           394.02224           431.55966           471.56697           504.85880           190.48658           413.36511           330.41998           485.01944           401.15249           402.89951           464.68710          1635.76632           814.68364           443.82717           422.67807           425.45336           367.49190           556.41943           509.87115           364.56151           412.67758           452.68779           431.60020           318.85257           430.30697           597.84463           413.91171           335.73782           408.09406           455.72144           452.27120           433.84357           413.14000           414.04055           413.66449           415.48255           416.56798           359.92201           374.22806           341.84719           359.60709           463.35203           390.55076           373.79410           419.18750           452.63929           402.25468           275.61599           413.84728           446.25527           343.23897           451.25242           413.11952           384.91336           952.55061           456.88356           452.50810           519.43747           490.26273           445.35517           447.98131           419.81859           321.61597           181.86480           326.73174           319.94581           305.40662           414.07717           448.69794           456.05783           468.42809           194.04751           370.60325           423.50109           504.01164           413.88615           354.90958           452.53830           433.26983           214.32225           390.60382           238.27608           397.90877           408.79171           217.82786           408.36810           350.90998           447.21833           655.11377           692.48966           389.66400           440.75151           414.45393           205.14364           446.20690           599.65512           294.72340           443.90565           410.49218           284.44796           451.72696           451.55712           366.51693           406.11698           423.95630           451.76221           414.67004           549.59426           521.24415           414.05673           450.33678           417.66196           357.72304           607.36619           791.91228           779.06304           827.90650           837.00579           456.02563           391.08216           442.92304           417.84064           404.08774           364.09532           413.43254           413.37465           414.91025           490.28900           192.68228           370.88875           451.85394           414.95300           452.41096           386.13030           452.60985           392.50419           689.07492           418.67768           412.19358           428.77019           428.62309           384.37680           428.25482           292.85144           421.81792           452.73380           442.58065           558.88440          1169.63336           396.45322           412.18359           624.75465           335.87817           452.21240           343.78573           575.97297           505.64087           414.11281           415.04210           445.46435           410.02091           413.47641           452.54818           414.44822           316.84921           254.25935           455.66192           552.90471           337.71273           393.46114           368.68196          2224.08166           452.26251           295.78468           462.08158           428.91391           532.08802           452.55109           429.92274           230.31229           452.53070           277.38539           293.81167           518.70767           389.65089           398.31274           420.39299           411.60916           465.46809           451.54068           450.98529           299.18232           390.89036           503.75237           416.94025           423.87521           452.03454           359.62713           445.73490           450.71784           451.91444           417.21404           427.43813           462.91300           616.27439           409.68337           563.96497           496.30509           625.89454           341.64234           452.53962           496.45629           452.38842           384.07299           562.31333           420.53797           406.92740           416.07184           449.45212           452.11311           412.62906           452.92972           525.54511           457.59413           908.25628           628.69920           225.02768           403.99520           449.36445           414.06494           412.94835           265.11214           412.10703           319.31347           420.55678           453.43168           303.33401           448.76080           232.00304           573.62021           475.47272           606.35899           386.89221           394.93745           507.77294           406.51223           214.79509           452.51389           416.08140           415.23903           406.18652           411.01596           451.76688           454.91878           447.58081           383.64163           519.76534          2947.53726           392.67497           451.80637           431.10198           455.82837           568.24264           446.51920           495.67649           381.81838           415.07952           416.72652           527.70648           455.44674           430.86180           503.81283           452.35044           377.25798           598.27798           411.75934           397.16460           475.38749           406.48170           231.93182           451.91807           401.12220           586.33015           412.28502           418.65141           404.29948           437.14046           465.87778           393.64641           408.34468           561.82702           460.85100           458.05077           753.98540         19618.44001           410.63297           341.68183           460.21289           494.79754           328.25254           751.51990           349.92832           643.60373           284.22981           429.03562           478.40081           415.34597           414.18273           193.64986           453.71589           246.55238           561.88904           253.29780           447.53585           449.84300           452.40986           506.73491           499.11793           452.64351           316.31936           310.40351           387.50657           416.42248           459.73162           355.48301           417.68621           704.66971           520.54248           515.37071           399.20646           417.42188           264.38721           417.12003           342.69932           450.52314           453.56518           402.82436           439.62830           451.47036           435.62605           405.75315           416.35736           312.24376           415.72886           270.24123           305.84323           427.27251           658.94215           415.31048           441.25776           658.00022           453.11370           451.70545           338.66554           435.52112           320.27857           416.88676           379.47654           288.80417           452.36016           603.75341           413.68772           185.59109           595.51724           466.86591           412.49075           350.84118           341.00223           413.45506           454.11471           326.18692           412.81701           326.41830           412.19182           351.70213           415.93943           451.22378           456.29124           633.17266           478.80508           547.43676           461.14649           339.01172           443.91948           368.74611           344.42252           405.57946           407.81522           498.02996           456.86348           483.38792           709.80050           271.86426           492.98229           452.46877           415.67519           453.12539           469.80614           422.55338           463.05178           420.34909           467.58046           335.56118           451.52392           323.05418           265.92435           451.84370           461.85289           519.13492           415.82617           430.84464           459.28091           415.01505           416.05711           428.21652           449.91152           539.23352           300.42305           458.65694           396.96300           266.85711           292.11565           414.49763           419.61752           396.01683           511.42454           408.74850           541.69827           452.24568           591.83383           416.23127           421.67213           757.05521           452.72445           670.43132           391.07384           451.24797           258.45115           411.43740           451.02073           610.31302           451.78483           450.99332           455.34321           426.38227           485.23822           956.55517           416.91981           519.75696           391.45947           838.34233           858.92770           817.40546           480.99551           625.30069           468.65202           452.66352           450.85799           504.83936           451.56111           530.04330           451.17888           413.45523           380.71109           527.84410           326.55218           423.68920           450.75944           376.97369           421.22915           718.19654           422.67738           412.10064           450.41569           450.86114           423.52600           454.03475           413.87401           520.51485           488.38146           450.99078           451.35532           544.07469           452.94461           402.13178           472.96238           451.51937           416.57856           400.15722           413.76015           306.88316           362.22890           403.57547           454.98561           406.32012           447.79044           398.14890           416.37409           417.54290           420.07455           433.00333           414.21915           467.82860           408.13807           640.66941           402.02857           579.68656           302.22720           351.26213           264.26763           168.67721           415.26543           518.76839           432.77948           583.29174           416.47109           339.53769  