# vtk DataFile Version 3.0
Output from R2
ASCII
DATASET UNSTRUCTURED_GRID
POINTS       2188 double
    -5.00000     0.00000   0.
     0.00000     0.00000   0.
     1.00000     0.05000   0.
     2.00000     0.10000   0.
     3.00000     0.12000   0.
     4.00000     0.14000   0.
     5.00000     0.18000   0.
     6.00000     0.22000   0.
     7.00000     0.20000   0.
     8.00000     0.18000   0.
     9.00000     0.11000   0.
    10.00000     0.05000   0.
    11.00000     0.02000   0.
    12.00000    -0.01000   0.
    13.00000    -0.06000   0.
    14.00000    -0.11000   0.
    15.00000    -0.15000   0.
    16.00000    -0.19000   0.
    17.00000    -0.15000   0.
    18.00000    -0.11000   0.
    19.00000    -0.05000   0.
    20.00000     0.00000   0.
    21.00000    -0.07000   0.
    22.00000    -0.13000   0.
    23.00000    -0.08000   0.
    24.00000    -0.03000   0.
    25.00000     0.03000   0.
    26.00000     0.09000   0.
    27.00000     0.09000   0.
    28.00000     0.09000   0.
    29.00000     0.12000   0.
    30.00000     0.15000   0.
    31.00000     0.16000   0.
    32.00000     0.16000   0.
    33.00000     0.21000   0.
    34.00000     0.26000   0.
    35.00000     0.24000   0.
    36.00000     0.22000   0.
    37.00000     0.35000   0.
    37.99000     0.48000   0.
    38.99000     0.48000   0.
    39.99000     0.48000   0.
    40.99000     0.55000   0.
    41.99000     0.62000   0.
    42.98000     0.73000   0.
    43.98000     0.78000   0.
    44.98000     0.83000   0.
    45.98000     0.88000   0.
    46.98000     0.93000   0.
    47.98000     0.98000   0.
    48.98000     0.94000   0.
    49.98000     0.90000   0.
    50.98000     0.86000   0.
    51.98000     0.82000   0.
    52.98000     0.88000   0.
    53.98000     0.93000   0.
    54.98000     0.89000   0.
    55.98000     0.85000   0.
    56.98000     0.80000   0.
    57.98000     0.75000   0.
    58.98000     0.78000   0.
    59.98000     0.80000   0.
    60.98000     0.80000   0.
    61.98000     0.80000   0.
    62.99000     0.81000   0.
    63.99000     0.82000   0.
    64.99000     0.81000   0.
    65.99000     0.81000   0.
    66.99000     0.83000   0.
    67.99000     0.85000   0.
    68.99000     0.87000   0.
    69.99000     0.90000   0.
    70.99000     1.00000   0.
    71.98000     1.10000   0.
    72.98000     1.20000   0.
    73.98000     1.29000   0.
    74.98000     1.34000   0.
    75.97000     1.40000   0.
    76.97000     1.46000   0.
    77.97000     1.51000   0.
    78.97000     1.41000   0.
    79.97000     1.32000   0.
    80.97000     1.37000   0.
    81.97000     1.42000   0.
    82.97000     1.37000   0.
    83.97000     1.32000   0.
    84.97000     1.35000   0.
    85.97000     1.37000   0.
    86.97000     1.40000   0.
    87.97000     1.42000   0.
    88.97000     1.39000   0.
    89.97000     1.37000   0.
    90.97000     1.42000   0.
    91.97000     1.47000   0.
    92.97000     1.48000   0.
    93.97000     1.49000   0.
    94.97000     1.50000   0.
    95.98000     1.50000   0.
    96.98000     1.52000   0.
    97.98000     1.54000   0.
    98.98000     1.54000   0.
    99.98000     1.54000   0.
   100.98000     1.58000   0.
   101.98000     1.61000   0.
   102.98000     1.60000   0.
   103.98000     1.59000   0.
   104.98000     1.62000   0.
   105.98000     1.64000   0.
   106.98000     1.68000   0.
   107.98000     1.71000   0.
   108.98000     1.73000   0.
   109.99000     1.76000   0.
   110.99000     1.81000   0.
   111.99000     1.85000   0.
   112.99000     1.84000   0.
   113.99000     1.83000   0.
   114.99000     1.84000   0.
   115.99000     1.85000   0.
   116.99000     1.86000   0.
   117.99000     1.86000   0.
   118.99000     1.83000   0.
   119.99000     1.81000   0.
   120.99000     1.86000   0.
   121.99000     1.91000   0.
   122.99000     1.96000   0.
   123.99000     2.03000   0.
   124.99000     2.14000   0.
   125.98000     2.25000   0.
   126.98000     2.34000   0.
   131.98000     2.34000   0.
    -5.00000    -5.00000   0.
    -1.74000    -5.00000   0.
     1.52000    -4.92000   0.
     4.78000    -4.83000   0.
     8.05000    -4.82000   0.
    11.31000    -4.99000   0.
    14.57000    -5.13000   0.
    17.83000    -5.12000   0.
    21.09000    -5.07000   0.
    24.35000    -5.01000   0.
    27.61000    -4.91000   0.
    30.88000    -4.85000   0.
    34.14000    -4.74000   0.
    37.40000    -4.59000   0.
    40.66000    -4.47000   0.
    43.92000    -4.22000   0.
    47.18000    -4.06000   0.
    50.44000    -4.12000   0.
    53.70000    -4.09000   0.
    56.97000    -4.20000   0.
    60.23000    -4.20000   0.
    63.49000    -4.18000   0.
    66.75000    -4.17000   0.
    70.01000    -4.10000   0.
    73.27000    -3.77000   0.
    76.53000    -3.57000   0.
    79.79000    -3.66000   0.
    83.06000    -3.64000   0.
    86.32000    -3.62000   0.
    89.58000    -3.62000   0.
    92.84000    -3.52000   0.
    96.10000    -3.50000   0.
    99.36000    -3.46000   0.
   102.62000    -3.40000   0.
   105.89000    -3.36000   0.
   109.15000    -3.26000   0.
   112.41000    -3.16000   0.
   115.67000    -3.15000   0.
   118.93000    -3.17000   0.
   122.19000    -3.08000   0.
   125.45000    -2.81000   0.
   128.71000    -2.66000   0.
   131.98000    -2.66000   0.
  -639.88000     0.00000   0.
  -639.88000  -385.93000   0.
   766.86000     2.34000   0.
   766.86000  -385.93000   0.
    -3.07439     0.00000   0.
    -1.69523     0.00000   0.
    -0.70746     0.00000   0.
     0.50000     0.02500   0.
     1.50000     0.07500   0.
     2.50000     0.11000   0.
     3.50000     0.13000   0.
     4.50000     0.16000   0.
     5.50000     0.20000   0.
     6.50000     0.21000   0.
     7.50000     0.19000   0.
     8.50000     0.14500   0.
     9.50000     0.08000   0.
    10.50000     0.03500   0.
    11.50000     0.00500   0.
    12.50000    -0.03500   0.
    13.50000    -0.08500   0.
    14.50000    -0.13000   0.
    15.50000    -0.17000   0.
    16.50000    -0.17000   0.
    17.50000    -0.13000   0.
    18.50000    -0.08000   0.
    19.50000    -0.02500   0.
    20.50000    -0.03500   0.
    21.50000    -0.10000   0.
    22.50000    -0.10500   0.
    23.50000    -0.05500   0.
    24.50000     0.00000   0.
    25.50000     0.06000   0.
    26.50000     0.09000   0.
    27.50000     0.09000   0.
    28.50000     0.10500   0.
    29.50000     0.13500   0.
    30.50000     0.15500   0.
    31.50000     0.16000   0.
    32.50000     0.18500   0.
    33.50000     0.23500   0.
    34.50000     0.25000   0.
    35.50000     0.23000   0.
    36.50000     0.28500   0.
    37.49500     0.41500   0.
    38.49000     0.48000   0.
    39.49000     0.48000   0.
    40.49000     0.51500   0.
    41.49000     0.58500   0.
    42.48500     0.67500   0.
    43.48000     0.75500   0.
    44.48000     0.80500   0.
    45.48000     0.85500   0.
    46.48000     0.90500   0.
    47.48000     0.95500   0.
    48.48000     0.96000   0.
    49.48000     0.92000   0.
    50.48000     0.88000   0.
    51.48000     0.84000   0.
    52.48000     0.85000   0.
    53.48000     0.90500   0.
    54.48000     0.91000   0.
    55.48000     0.87000   0.
    56.48000     0.82500   0.
    57.48000     0.77500   0.
    58.48000     0.76500   0.
    59.48000     0.79000   0.
    60.48000     0.80000   0.
    61.48000     0.80000   0.
    62.48500     0.80500   0.
    63.49000     0.81500   0.
    64.49000     0.81500   0.
    65.49000     0.81000   0.
    66.49000     0.82000   0.
    67.49000     0.84000   0.
    68.49000     0.86000   0.
    69.49000     0.88500   0.
    70.49000     0.95000   0.
    71.48500     1.05000   0.
    72.48000     1.15000   0.
    73.48000     1.24500   0.
    74.48000     1.31500   0.
    75.47500     1.37000   0.
    76.47000     1.43000   0.
    77.47000     1.48500   0.
    78.47000     1.46000   0.
    79.47000     1.36500   0.
    80.47000     1.34500   0.
    81.47000     1.39500   0.
    82.47000     1.39500   0.
    83.47000     1.34500   0.
    84.47000     1.33500   0.
    85.47000     1.36000   0.
    86.47000     1.38500   0.
    87.47000     1.41000   0.
    88.47000     1.40500   0.
    89.47000     1.38000   0.
    90.47000     1.39500   0.
    91.47000     1.44500   0.
    92.47000     1.47500   0.
    93.47000     1.48500   0.
    94.47000     1.49500   0.
    95.47500     1.50000   0.
    96.48000     1.51000   0.
    97.48000     1.53000   0.
    98.48000     1.54000   0.
    99.48000     1.54000   0.
   100.48000     1.56000   0.
   101.48000     1.59500   0.
   102.48000     1.60500   0.
   103.48000     1.59500   0.
   104.48000     1.60500   0.
   105.48000     1.63000   0.
   106.48000     1.66000   0.
   107.48000     1.69500   0.
   108.48000     1.72000   0.
   109.48500     1.74500   0.
   110.49000     1.78500   0.
   111.49000     1.83000   0.
   112.49000     1.84500   0.
   113.49000     1.83500   0.
   114.49000     1.83500   0.
   115.49000     1.84500   0.
   116.49000     1.85500   0.
   117.49000     1.86000   0.
   118.49000     1.84500   0.
   119.49000     1.82000   0.
   120.49000     1.83500   0.
   121.49000     1.88500   0.
   122.49000     1.93500   0.
   123.49000     1.99500   0.
   124.49000     2.08500   0.
   125.48500     2.19500   0.
   126.48000     2.29500   0.
   127.68746     2.34000   0.
   128.67523     2.34000   0.
   130.05439     2.34000   0.
    -3.37000    -5.00000   0.
    -0.11000    -4.96000   0.
     3.15000    -4.87500   0.
     6.41500    -4.82500   0.
     9.68000    -4.90500   0.
    12.94000    -5.06000   0.
    16.20000    -5.12500   0.
    19.46000    -5.09500   0.
    22.72000    -5.04000   0.
    25.98000    -4.96000   0.
    29.24500    -4.88000   0.
    32.51000    -4.79500   0.
    35.77000    -4.66500   0.
    39.03000    -4.53000   0.
    42.29000    -4.34500   0.
    45.55000    -4.14000   0.
    48.81000    -4.09000   0.
    52.07000    -4.10500   0.
    55.33500    -4.14500   0.
    58.60000    -4.20000   0.
[...]
POINT_DATA      2188
CELL_DATA      4025
SCALARS Resistivity(ohm.m) double 1
LOOKUP_TABLE default
           431.71056           427.76379           439.04318           433.50649           434.04761           233.78913           433.31184           433.59036           433.57922           430.84282           369.08360           652.48790           433.46904           433.48276           438.27678           465.65402           434.98369           432.41611           365.42073           437.98504           432.84745           865.19327           433.74236           420.20663           432.96621           324.15859           454.38873           273.69907           467.12839           197.63575           226.12922           436.24941           435.48638           432.85958           340.80220           603.37732           637.77258           625.10152           225.49131           432.79535           406.90673           576.29482          5387.31759           739.17152           432.72714           433.42345           479.41845           348.94695           437.78486           373.74053           433.60604           434.31041           254.99372           232.41280           233.09894           598.08257           431.28982           627.15952           358.73219           618.05660           433.49111           432.42555           368.48565           579.76611           433.35585          2436.46191           271.98596           436.61315           658.61996           432.44042           457.33602           947.40363           358.44366           367.20370           484.74950           419.61900           438.39065           242.14025           926.31865           450.29571           736.83848           690.68985           432.42213           269.72758          1014.11823           432.46270           203.93354           433.43857           202.56742           279.50033           434.50347           434.11309           433.19150           432.69687           222.48532           455.37433           433.12826           860.55171           433.34381           437.62954           434.38630           443.64754           475.10524           487.11341           945.30310           657.83916           433.32103           434.12518           437.11121           438.96731           378.66292           435.90933           432.70229           481.72926           433.46864           849.02611          2439.56118           433.63574           433.10940           482.45639           348.58154           436.25833           434.61812           276.56941           225.61288           439.18863           682.54602           850.68605           655.69088           433.01497           621.08321           409.13857           448.98976           430.50767           231.15753           433.97320           439.05775           436.43986           448.09544           442.75014           774.51029           201.97096           303.33635           244.78765           186.19147           432.43979           300.19794           539.15263           210.33566           435.12485           569.12907           880.72937           443.31448           446.59444           433.91602           497.71830           436.02769           400.20889           935.95956           446.08570           397.73175           585.01580           432.98950           646.85602           880.33251           274.17752           435.35588           433.67758           432.84442           652.03349           737.29231           432.61578           432.47621          1156.57156           269.17700           372.28945           360.20182           399.46341           434.73552           433.04090           453.95046           433.60051           285.11863           570.14023           401.58152           903.90766           807.67195           354.18096           819.50368           873.63593           379.92402           638.57357           433.04935           452.28913           365.63914           457.79644           432.40771           432.66339           661.63948           434.07623           487.10115           197.53695           572.30073           442.20727          1073.21462           452.11654           176.40365           776.85722           440.37663           440.03939           455.47077           710.44695           711.06505           432.41870           432.84451           251.01368           444.64006           576.33550           541.34160           435.28840           483.59517           432.71055           363.87875           725.48975          1012.43750           435.96463           277.36600          1323.72119           452.29111           448.54913           437.49684           594.92717           433.16437           915.29087           458.73861           437.53244           523.49808           432.57673           432.42480           637.68814           432.86387           434.89689           475.22310           443.79066           320.26974           433.10269           459.47182           434.78220           437.25229           432.63032           385.33830           451.20389           363.91612           657.00187           667.55737           382.93581           433.03433          3020.74454           816.95732           438.54191           286.77060           623.60040           436.89021           432.43296           633.53344           432.53429           612.66320           435.80724           440.01193           457.05503           391.42946           490.44168           435.03205           678.22884           433.42427           468.84801           435.72129           553.26060           439.70267           434.12187           781.74706           433.76552           537.91880          6132.17368           449.08867           444.13886           672.88324           432.70678           432.80845           433.36095           371.61321           427.79215           807.05602           432.46925           502.65968           477.90960           461.87586           461.48006           480.65844           291.50971           284.28697           915.04558           436.91932           631.07386           418.66932           432.48029           659.09797           494.50656           383.56269           436.83849           929.25799           489.29874           432.62456           562.09427           460.50777           425.55672           488.82229           224.36713           436.34072           850.89356           227.24279           432.47545           432.65636           335.18006           434.13658           436.20374           254.21444           433.20101           449.82855           433.12247           257.43303           681.11738           286.46718           902.10654           193.56738           433.30134           445.93327           432.44715           432.86047           432.67199           838.15140           432.48412           432.48308           435.02510           772.83209           432.49484           359.63783           176.37998           343.54769           433.17689           254.97006           440.82825           432.60793           454.54052           436.79805           433.23147           432.57097           432.56028           829.00917           442.18643           241.32576           443.45184           471.32433           433.21113           509.43803           485.81881           435.21159           395.30026           433.70310           471.63412           781.41279           424.91052           301.87389           597.69773           913.64345           230.62731           433.18358           282.21584           432.58928           618.35996           630.79007           432.77914           429.07003           466.47633           433.01481           267.27404           706.42268           432.76553           443.65618          7469.75672           799.51087           289.36437           433.30070           641.82586           388.26787           432.42236           332.84626           444.86885           587.90819           432.92151           372.05699           448.03759           174.95504           254.11604           639.05021           485.16450           433.26468           208.02500           433.06729           433.24972           500.45638           433.17933           169.86766           433.57033           271.31716           432.43414           700.87472           503.06503           439.12329           525.24337           434.38736           433.77907           651.44118           257.88107           434.29794           442.81510           663.59801           463.13523           415.19901           726.35916           432.49977           401.65132           480.74752           465.84457           433.60424           703.93962           433.57692          1071.13162           263.81540           572.06715           495.76110           433.73841           411.71162           446.04898           434.48920           453.26551           446.94978           416.21056           406.94813           434.54589           439.33748           276.55982           192.73929           433.43673           437.50536           432.81059           198.43341           965.25905           434.27826           610.59164           550.21794           476.60453           433.00716           555.23905           621.49297           179.24135           301.19921           433.11616           171.66135           324.20987           445.97724           211.40673           432.65208           371.48131           503.98839           714.24478           441.92364           549.17958           430.45624           435.17216           729.10599           591.93872           234.79783           434.60862           219.63425           525.16637           432.47444           433.70306           532.94982          1038.82036           668.42057           432.90747           432.67426           467.81116           361.36886           702.93870           648.51214           826.80882           432.73375           432.37529           434.17001           393.32809           434.46747           731.19426           432.43896           428.91583           433.46292           441.74943           432.51506           433.29901           433.18318           432.38976           432.51657           432.54577           432.41998           259.72083           372.18346           460.75458           172.74419           461.47075           447.69515           378.27456           432.47635           432.42132           452.98425           255.81479           432.46848           433.03669           327.99371           435.29536           432.59209           407.10388          1058.54086           458.26311           432.33457           678.20126           464.81619           434.65120           432.58942           432.49509           328.79795           205.15648           326.10155           282.84652           335.90150           455.45570           435.73562           433.64040           447.00656           209.89890           383.54380           444.06349           571.09997           434.14956           550.93979           432.43899           442.75093           205.79033           700.37500           162.27329           435.37434           434.56134           201.43550           435.56955           341.45729           438.76136           852.82135          1176.12383           415.70058           433.11918           432.48118           221.03579           432.71625           481.86559           251.25314           451.43819           434.38411           312.27242           433.07779           432.77065           537.47774           441.40634           455.47939           432.41832           432.39447           477.07987           477.33663           432.46535           432.44818           432.42509           657.01057           769.00364          1190.03437          1076.21089          1076.10638          1128.84156           434.04382           419.03273           433.94267           432.43881           433.30812           463.06618           432.84743           432.52318           432.89436           418.10634           223.51150           429.46309           432.50689           432.40398           432.32759           383.24406           432.34155           421.86408           973.68256           432.45106           433.34516           433.28015           433.80560           604.07954           441.16749           251.90722           432.61394           432.32011           433.25671           489.75922          1147.42991           843.99657           432.90002           891.89575           311.31031           432.35205           702.39475           855.26338           480.25366           432.38012           432.41482           432.96699           433.66372           432.50810           432.53851           432.38195           313.22496           296.77076           435.36028           618.45470           349.48845           299.25089           634.07071          2085.71670           432.33005           312.03878           443.74533           446.34694           771.57538           432.71382           435.77713           277.00276           432.65409           284.56764           365.25887           608.88100           319.07178           477.96688           432.52363           462.10302           440.10546           432.39452           432.40368           267.60430           421.26603           455.77011           432.41432           439.79824           432.45787           302.32134           451.85962           432.42642           432.35980           432.42162           668.12286           437.33141           510.16284           433.12105           564.00861           624.29554           527.32730           533.40601           432.41464           724.90879           432.99497           777.14147           658.13001           452.16751           435.85617           432.64242           432.72766           432.33713           432.69526           432.90079           591.23571           659.51510           905.66782           848.77263           164.12608           433.70669           432.49955           432.65362           432.63453           235.49231           432.97080           355.01235           438.11527           432.95234           338.13231           432.53815           194.31788           711.15884           606.05378           509.06977           411.67879           426.11125           765.44923           433.48072           166.18987           432.60391           432.39885           432.41519           461.96033           432.96670           432.36925           433.12295           441.95196           435.79518           571.44371          2832.43129           427.46751           432.56214           436.54430           433.40435           701.21968           435.53511           451.90797           395.93892           432.41544           597.10796           444.17839           433.45029           446.79792           431.92512           432.92924           497.55628           849.90182           432.86872           429.03759           442.60845           436.74321           276.77058           432.38813           432.16989           822.72317           432.76008           436.29653           433.21969           436.42903           437.55981           424.11993           433.28778           588.46564           435.13195           434.14539           833.73511         28719.59522           433.02548           152.82405           436.32110           739.24908           394.17123           821.62006           729.55771           548.65245           384.22797           434.17683           497.86831           432.42795           432.50350           240.40982           432.97353           300.16697           418.34449           342.79132           433.43449           468.29066           432.61226           548.05209           470.51600           432.77690           291.66902           302.30643           520.22706           434.11472           440.97168           371.81750           433.26347           701.17502           490.57781           460.77749           430.97448           435.00412           283.06818           432.62041           324.90462           447.66276           439.67938           432.84317           516.69591           432.50590           441.79799           433.42910           432.51780           299.43418           432.46810           356.15831           309.09197           489.51847           671.91373           432.41502           433.82273           835.11738           446.35194           432.68475           403.44444           437.01946           296.96434           432.94300           389.86106           275.83356           432.68532           815.63572           432.50202           194.82320           695.84370           438.99494           432.72579           437.98650           262.40360           433.79632           432.98559           248.23992           432.66350           303.38086           448.35986           674.20330           432.42253           432.62044           433.59591           949.25083           444.56172           738.68307           492.65931           382.12434           433.61166           474.38853           361.64207           456.25383           433.39534           720.96065           433.77223           446.37611           669.46504           305.19703           530.34356           432.33929           432.44410           432.94529           439.70827           484.55084           436.12309           822.37591           438.60418           438.20431           432.46453           346.95773           322.61161           432.38266           435.62371           933.23594           432.41127           440.61870           434.51703           432.48710           432.42053           435.77004           440.73372           722.94488           371.02446           434.38153           469.61347           287.48199           288.95005           495.33926           432.69865           427.70161           654.32007           433.39281           608.15653           432.37291           462.28684           432.47587           433.64677          1174.86888           432.32363           538.76552           425.10811           432.55528           259.11827           432.91872           432.76259           551.11018           432.99943           433.36245           433.24798           439.43063           495.75196           792.80371           432.55448           650.69527           439.57814          1196.67795          1184.48298          1146.74407           505.19913           777.60045           440.63868           432.34591           433.07352           598.22201           432.92381           507.39329           433.84684           432.56324           436.87043           519.82831           429.96821           432.74822           432.54456           323.84881           433.36927          1024.01060           438.20702           432.80601           432.67182           432.91148           433.28896           435.41966           432.48374           543.39771           665.43444           432.68220           432.38498           652.27851           432.96516           790.20964           484.30747           432.38495           432.39420           431.66562           432.75966           208.99441           379.59439           433.06584           443.17805           433.83260           653.29431           430.11650           433.76516           433.05203           436.70435           478.81427           432.39860           466.25889           433.67945           899.95321           432.58702           711.75464           231.68881           218.26076           222.86245           248.72138           432.42098           629.15979           339.00507           614.85885           432.40624           249.16519  