# vtk DataFile Version 3.0
Output from R2
ASCII
DATASET UNSTRUCTURED_GRID
POINTS       2188 double
    -5.00000     0.00000   0.
     0.00000     0.00000   0.
     1.00000     0.05000   0.
     2.00000     0.10000   0.
     3.00000     0.12000   0.
     4.00000     0.14000   0.
     5.00000     0.18000   0.
     6.00000     0.22000   0.
     7.00000     0.20000   0.
     8.00000     0.18000   0.
     9.00000     0.11000   0.
    10.00000     0.05000   0.
    11.00000     0.02000   0.
    12.00000    -0.01000   0.
    13.00000    -0.06000   0.
    14.00000    -0.11000   0.
    15.00000    -0.15000   0.
    16.00000    -0.19000   0.
    17.00000    -0.15000   0.
    18.00000    -0.11000   0.
    19.00000    -0.05000   0.
    20.00000     0.00000   0.
    21.00000    -0.07000   0.
    22.00000    -0.13000   0.
    23.00000    -0.08000   0.
    24.00000    -0.03000   0.
    25.00000     0.03000   0.
    26.00000     0.09000   0.
    27.00000     0.09000   0.
    28.00000     0.09000   0.
    29.00000     0.12000   0.
    30.00000     0.15000   0.
    31.00000     0.16000   0.
    32.00000     0.16000   0.
    33.00000     0.21000   0.
    34.00000     0.26000   0.
    35.00000     0.24000   0.
    36.00000     0.22000   0.
    37.00000     0.35000   0.
    37.99000     0.48000   0.
    38.99000     0.48000   0.
    39.99000     0.48000   0.
    40.99000     0.55000   0.
    41.99000     0.62000   0.
    42.98000     0.73000   0.
    43.98000     0.78000   0.
    44.98000     0.83000   0.
    45.98000     0.88000   0.
    46.98000     0.93000   0.
    47.98000     0.98000   0.
    48.98000     0.94000   0.
    49.98000     0.90000   0.
    50.98000     0.86000   0.
    51.98000     0.82000   0.
    52.98000     0.88000   0.
    53.98000     0.93000   0.
    54.98000     0.89000   0.
    55.98000     0.85000   0.
    56.98000     0.80000   0.
    57.98000     0.75000   0.
    58.98000     0.78000   0.
    59.98000     0.80000   0.
    60.98000     0.80000   0.
    61.98000     0.80000   0.
    62.99000     0.81000   0.
    63.99000     0.82000   0.
    64.99000     0.81000   0.
    65.99000     0.81000   0.
    66.99000     0.83000   0.
    67.99000     0.85000   0.
    68.99000     0.87000   0.
    69.99000     0.90000   0.
    70.99000     1.00000   0.
    71.98000     1.10000   0.
    72.98000     1.20000   0.
    73.98000     1.29000   0.
    74.98000     1.34000   0.
    75.97000     1.40000   0.
    76.97000     1.46000   0.
    77.97000     1.51000   0.
    78.97000     1.41000   0.
    79.97000     1.32000   0.
    80.97000     1.37000   0.
    81.97000     1.42000   0.
    82.97000     1.37000   0.
    83.97000     1.32000   0.
    84.97000     1.35000   0.
    85.97000     1.37000   0.
    86.97000     1.40000   0.
    87.97000     1.42000   0.
    88.97000     1.39000   0.
    89.97000     1.37000   0.
    90.97000     1.42000   0.
    91.97000     1.47000   0.
    92.97000     1.48000   0.
    93.97000     1.49000   0.
    94.97000     1.50000   0.
    95.98000     1.50000   0.
    96.98000     1.52000   0.
    97.98000     1.54000   0.
    98.98000     1.54000   0.
    99.98000     1.54000   0.
   100.98000     1.58000   0.
   101.98000     1.61000   0.
   102.98000     1.60000   0.
   103.98000     1.59000   0.
   104.98000     1.62000   0.
   105.98000     1.64000   0.
   106.98000     1.68000   0.
   107.98000     1.71000   0.
   108.98000     1.73000   0.
   109.99000     1.76000   0.
   110.99000     1.81000   0.
   111.99000     1.85000   0.
   112.99000     1.84000   0.
   113.99000     1.83000   0.
   114.99000     1.84000   0.
   115.99000     1.85000   0.
   116.99000     1.86000   0.
   117.99000     1.86000   0.
   118.99000     1.83000   0.
   119.99000     1.81000   0.
   120.99000     1.86000   0.
   121.99000     1.91000   0.
   122.99000     1.96000   0.
   123.99000     2.03000   0.
   124.99000     2.14000   0.
   125.98000     2.25000   0.
   126.98000     2.34000   0.
   131.98000     2.34000   0.
    -5.00000    -5.00000   0.
    -1.74000    -5.00000   0.
     1.52000    -4.92000   0.
     4.78000    -4.83000   0.
     8.05000    -4.82000   0.
    11.31000    -4.99000   0.
    14.57000    -5.13000   0.
    17.83000    -5.12000   0.
    21.09000    -5.07000   0.
    24.35000    -5.01000   0.
    27.61000    -4.91000   0.
    30.88000    -4.85000   0.
    34.14000    -4.74000   0.
    37.40000    -4.59000   0.
    40.66000    -4.47000   0.
    43.92000    -4.22000   0.
    47.18000    -4.06000   0.
    50.44000    -4.12000   0.
    53.70000    -4.09000   0.
    56.97000    -4.20000   0.
    60.23000    -4.20000   0.
    63.49000    -4.18000   0.
    66.75000    -4.17000   0.
    70.01000    -4.10000   0.
    73.27000    -3.77000   0.
    76.53000    -3.57000   0.
    79.79000    -3.66000   0.
    83.06000    -3.64000   0.
    86.32000    -3.62000   0.
    89.58000    -3.62000   0.
    92.84000    -3.52000   0.
    96.10000    -3.50000   0.
    99.36000    -3.46000   0.
   102.62000    -3.40000   0.
   105.89000    -3.36000   0.
   109.15000    -3.26000   0.
   112.41000    -3.16000   0.
   115.67000    -3.15000   0.
   118.93000    -3.17000   0.
   122.19000    -3.08000   0.
   125.45000    -2.81000   0.
   128.71000    -2.66000   0.
   131.98000    -2.66000   0.
  -639.88000     0.00000   0.
  -639.88000  -385.93000   0.
   766.86000     2.34000   0.
   766.86000  -385.93000   0.
    -3.07439     0.00000   0.
    -1.69523     0.00000   0.
    -0.70746     0.00000   0.
     0.50000     0.02500   0.
     1.50000     0.07500   0.
     2.50000     0.11000   0.
     3.50000     0.13000   0.
     4.50000     0.16000   0.
     5.50000     0.20000   0.
     6.50000     0.21000   0.
     7.50000     0.19000   0.
     8.50000     0.14500   0.
     9.50000     0.08000   0.
    10.50000     0.03500   0.
    11.50000     0.00500   0.
    12.50000    -0.03500   0.
    13.50000    -0.08500   0.
    14.50000    -0.13000   0.
    15.50000    -0.17000   0.
    16.50000    -0.17000   0.
    17.50000    -0.13000   0.
    18.50000    -0.08000   0.
    19.50000    -0.02500   0.
    20.50000    -0.03500   0.
    21.50000    -0.10000   0.
    22.50000    -0.10500   0.
    23.50000    -0.05500   0.
    24.50000     0.00000   0.
    25.50000     0.06000   0.
    26.50000     0.09000   0.
    27.50000     0.09000   0.
    28.50000     0.10500   0.
    29.50000     0.13500   0.
    30.50000     0.15500   0.
    31.50000     0.16000   0.
    32.50000     0.18500   0.
    33.50000     0.23500   0.
    34.50000     0.25000   0.
    35.50000     0.23000   0.
    36.50000     0.28500   0.
    37.49500     0.41500   0.
    38.49000     0.48000   0.
    39.49000     0.48000   0.
    40.49000     0.51500   0.
    41.49000     0.58500   0.
    42.48500     0.67500   0.
    43.48000     0.75500   0.
    44.48000     0.80500   0.
    45.48000     0.85500   0.
    46.48000     0.90500   0.
    47.48000     0.95500   0.
    48.48000     0.96000   0.
    49.48000     0.92000   0.
    50.48000     0.88000   0.
    51.48000     0.84000   0.
    52.48000     0.85000   0.
    53.48000     0.90500   0.
    54.48000     0.91000   0.
    55.48000     0.87000   0.
    56.48000     0.82500   0.
    57.48000     0.77500   0.
    58.48000     0.76500   0.
    59.48000     0.79000   0.
    60.48000     0.80000   0.
    61.48000     0.80000   0.
    62.48500     0.80500   0.
    63.49000     0.81500   0.
    64.49000     0.81500   0.
    65.49000     0.81000   0.
    66.49000     0.82000   0.
    67.49000     0.84000   0.
    68.49000     0.86000   0.
    69.49000     0.88500   0.
    70.49000     0.95000   0.
    71.48500     1.05000   0.
    72.48000     1.15000   0.
    73.48000     1.24500   0.
    74.48000     1.31500   0.
    75.47500     1.37000   0.
    76.47000     1.43000   0.
    77.47000     1.48500   0.
    78.47000     1.46000   0.
    79.47000     1.36500   0.
    80.47000     1.34500   0.
    81.47000     1.39500   0.
    82.47000     1.39500   0.
    83.47000     1.34500   0.
    84.47000     1.33500   0.
    85.47000     1.36000   0.
    86.47000     1.38500   0.
    87.47000     1.41000   0.
    88.47000     1.40500   0.
    89.47000     1.38000   0.
    90.47000     1.39500   0.
    91.47000     1.44500   0.
    92.47000     1.47500   0.
    93.47000     1.48500   0.
    94.47000     1.49500   0.
    95.47500     1.50000   0.
    96.48000     1.51000   0.
    97.48000     1.53000   0.
    98.48000     1.54000   0.
    99.48000     1.54000   0.
   100.48000     1.56000   0.
   101.48000     1.59500   0.
   102.48000     1.60500   0.
   103.48000     1.59500   0.
   104.48000     1.60500   0.
   105.48000     1.63000   0.
   106.48000     1.66000   0.
   107.48000     1.69500   0.
   108.48000     1.72000   0.
   109.48500     1.74500   0.
   110.49000     1.78500   0.
   111.49000     1.83000   0.
   112.49000     1.84500   0.
   113.49000     1.83500   0.
   114.49000     1.83500   0.
   115.49000     1.84500   0.
   116.49000     1.85500   0.
   117.49000     1.86000   0.
   118.49000     1.84500   0.
   119.49000     1.82000   0.
   120.49000     1.83500   0.
   121.49000     1.88500   0.
   122.49000     1.93500   0.
   123.49000     1.99500   0.
   124.49000     2.08500   0.
   125.48500     2.19500   0.
   126.48000     2.29500   0.
   127.68746     2.34000   0.
   128.67523     2.34000   0.
   130.05439     2.34000   0.
    -3.37000    -5.00000   0.
    -0.11000    -4.96000   0.
     3.15000    -4.87500   0.
     6.41500    -4.82500   0.
     9.68000    -4.90500   0.
    12.94000    -5.06000   0.
    16.20000    -5.12500   0.
    19.46000    -5.09500   0.
    22.72000    -5.04000   0.
    25.98000    -4.96000   0.
    29.24500    -4.88000   0.
    32.51000    -4.79500   0.
    35.77000    -4.66500   0.
    39.03000    -4.53000   0.
    42.29000    -4.34500   0.
    45.55000    -4.14000   0.
    48.81000    -4.09000   0.
    52.07000    -4.10500   0.
    55.33500    -4.14500   0.
    58.60000    -4.20000   0.
[...]
POINT_DATA      2188
CELL_DATA      4025
SCALARS Resistivity(ohm.m) double 1
LOOKUP_TABLE default
           441.98088           394.86929          1152.39470           741.89524           921.57304           312.40203           613.19503           615.48755           522.92343           433.52366           321.99271           754.29701           821.93331           510.75072           530.15980          1270.24845           714.26123           486.03684           313.43926           509.91818           500.34709           419.90483           449.29396           400.60889           598.23313           393.87074          1581.39984           261.67010          1371.54386           246.80309           338.48142           998.84699           696.00882           909.28272           325.04418           572.21936           786.13043           911.63712           209.51826           497.98253           378.77866          1178.38895          3193.84572           449.66082           540.56158           794.66519           786.45039           332.38917           953.86338           310.54278           516.63760           446.03741           381.06432           598.64272           272.69025           805.15465           440.21843           518.69159           294.92292           612.87819           657.22093           494.25728           401.74956           464.54729           521.90669          2964.05436           566.87385          1173.23436           787.37288           487.01043          1376.78095           676.67766           543.32491           302.70910           415.05810           391.93960           372.76718           305.49934           643.31879          1513.84275           501.07607           528.64663           489.72193           361.24271           604.37512           491.27472           262.93194           474.67305           218.36741           480.19304           395.31041           571.63194           991.09504           497.13143           268.45181           970.65769           628.11741           548.25438           738.65167           448.37244           703.56603           525.42050           876.11559           860.39203           738.88612           711.45364           998.12575           899.70287           993.79610           500.93021           318.43860          1150.52708           546.22998           426.08484           685.38126           672.67437          1855.86015           480.71410           592.17163           606.97161           578.52452           897.40641          1089.48221           263.84033           279.34706          1117.87008           661.15642           473.98022           794.44243           965.72210           848.34461           497.40595           821.85050           432.19935           256.45168           777.89918           793.66204           810.13458           741.23493           772.92747           473.64647           208.90191           249.31555           324.28281           280.38137           490.23005           472.65731          1208.22186           286.63224           953.22700           988.78741           690.81452           566.49463           525.55117          1040.33825           454.33778           864.50064           565.21568           473.99389          1352.17296           550.92511           873.12539           906.62969           669.47976           725.49440           312.36376           744.13228           717.08281           888.31135           780.21516           527.00384           504.29995           502.72997           633.50179           427.25405           304.80385           314.48914           642.72901           817.54173           843.86020           932.76333           771.14666           257.68931           401.68220           348.21054           459.01717           695.01793           392.22335           624.81793           434.45099           286.85628           792.31562           963.63106          1284.48804           546.45641          1588.94229           485.40219           502.70576          2582.08189           725.23319           465.94417           387.20715           490.78344           546.24768           616.08793           645.91985           240.29541           376.65623           828.56512           859.50644          1436.46437           631.82155           335.29788           942.81959           580.91217           282.87851           809.27895           848.79934           664.42597           797.50527          1277.32427           947.65677           324.01290           815.96592           599.61963           522.23156           416.38810          1912.85201          1220.79303           506.34274          1148.70328           686.95906           886.70709           578.34864           712.66413           919.19063           657.07521           528.35588           485.87884           795.11168           949.74471           765.57307           908.94559           627.47114           369.60259           852.60123          1525.13777           585.32057           785.55311           922.53945           356.70218           858.93998           292.30028           784.32034           426.09147           584.12801           505.75720          3571.16026           760.20041           871.37321           336.72045           536.92129           533.73985           941.13601           775.58255           521.83367           799.22619          1085.33829           767.80320          1211.76458           357.80781          1999.23211          1110.01109           652.39405           896.00994           495.49585          1126.61144          1052.85405           547.40825          1056.58673          1879.79812           569.02355           546.52800          2369.01834           709.44872           742.77375           597.90590           499.51949           880.66313           983.20105           308.88136           422.58100           739.31660           503.29174           826.28667           815.06703           419.89159           738.52216           456.30281           278.69947           453.37116           580.27306           848.32772           521.96314           518.07211           931.91693           328.73990           582.32322           325.55530           686.60137          2008.63305          1847.74356           538.21002           932.72201           476.06529           415.87265           834.27817           241.43401           704.53857           680.31510           411.61127           929.48675           945.37619           517.69499           807.30265          1069.11363           256.25573           495.88379          1409.97503           968.99747           275.68006           759.21801           260.11236           699.14491           235.73457           683.18094           687.38676           946.36762           946.22893           907.11974           632.82021           488.17181           947.23855           848.31538           647.09234           488.87886           843.02468           284.48905           364.70449           963.55930           412.83238          1191.63401           916.74259           482.26754           962.69945           497.95433           945.02526           491.15553          2855.88811           588.75272           269.33622           444.73388           576.90795           515.10688           485.73403           647.36481           526.45983           365.24398           924.72876          1231.91825           700.03789           469.69630           443.76820           981.12539          1295.45172           215.40942           460.26902           267.95642           435.71240           670.57180           788.59396           901.45362           306.86650           824.53850           973.15274           338.94845           884.05762           453.46947          1204.89898          3622.74430           720.92663           259.49910           967.78492           374.88556           437.33757           484.79845           532.68880          1290.52219          2426.31504           505.97014           313.80662           981.86150           260.25856           316.05360           791.39595           610.36611           764.84611           427.74403           496.53367           792.01867           452.95435           655.03050           253.06357           483.84006           296.69718           498.41958           682.87656           408.17430           474.18313          1296.21397           940.99262           654.84873           515.05415           244.39538           585.59815           915.77218           770.99300          1411.84447           434.20084           369.91753           930.79790           348.83985           563.62634           858.84617           495.62636           780.27846           488.27059          1492.61780           435.93223           576.40198           464.98329           598.20596           363.15160          1012.72297           863.59061           700.56095          1167.83304           394.42098           355.59645          1071.22087           980.61267           397.06902           266.46437           485.85911          1079.58227           920.23298           415.96851           617.32176           755.94812           835.69769           493.40633           603.09175           514.51932          1938.15036          2449.81725           244.05787           354.47547           980.06852           378.85147           370.11680           312.65879           232.80133           903.28418           377.24585           485.58887           746.71759           489.05432           312.37470           435.31274           669.90760           738.13583           964.51914           221.49998           519.07271           370.92704          1079.74126           451.85690           469.30424           425.91173          3084.14978          2477.17064           862.07079           552.19293           590.98726           300.80431           540.72789           386.04328           559.11067           496.86525           944.18626           672.31660           361.84833           659.57124           774.90875           486.86967           390.47600           490.14010          1046.20242           946.20559           710.34686           509.01236           485.98997           492.40491           501.47649           485.85684           478.22273           296.16745           421.89056           385.65627           983.62127           465.46556           319.71499           509.59473           945.39718           505.70104           305.29857           487.52445           892.01073           290.66573           978.09222           492.29948           356.47616          1860.63107           876.47236           942.26549           351.03609          1550.83151           890.64425           910.89281           516.24198           387.88194           215.09625           694.23317           347.60104           592.53609           564.62672           941.35582          1029.08986          1259.67842           237.04087           787.96216           600.07886           369.29005           521.94420           513.60208           945.60607           689.00065           236.31283           555.61273           247.66633           463.24326           500.78625           295.22241           506.69075           294.79659           907.14125           678.21434           681.05535           370.66269           817.55025           493.46752           230.33234           891.89429           492.15739           361.06554           772.16755           508.76530           307.36429           954.09080           942.74844           517.28545           504.99641           619.42322           940.54482           485.00309          1902.72795          1799.58167           487.59099           932.52520           493.47111           495.19493           656.48328           661.27472           537.61274           579.53468           627.01224          1035.07492           378.41048           852.35783           498.50212           469.26469           587.68389           502.74161           490.36177           509.61005           306.53418           224.97944           414.96169           942.37359           484.55522           941.77963           478.61157           942.23667           386.34832           517.21913           503.84953           507.17358           632.56158           635.59331           575.57613           638.73102           390.84267           540.52821           942.55980           845.06108          1965.10143          1248.28747           618.55144           500.63072           513.19999           278.79382           941.79027           484.55103           538.77921           697.78468           485.78061           485.41216           883.07442           500.10713           489.49727           947.95766           485.26715           476.19546           257.67916          1042.48930           726.20460           318.44079           535.43349           557.61166          1696.41038           941.44806           303.79063          1164.77390           644.26576           596.76083           950.31837           654.81495           268.68945           949.38054           271.62354           337.99603           798.49721           518.58005           532.08184           523.11752           559.11966          1218.09274           939.54083           937.14554           303.62810           386.66086          1651.40090           486.59860           600.12504           943.52132           413.59291           797.99309           935.51898           940.43630           489.06572           582.19065          1174.52017          2127.70315           495.63183          1815.90274           708.20961           469.12124           487.28448           944.84588           710.07331           956.55227           590.88885           787.67456           589.23658           498.49456           508.89453           924.00486           940.89174           494.99989           957.91609           804.95388           726.86749          1162.69181           430.48196           250.38214           472.79176           923.99359           499.53763           493.20128           308.31652           502.42502           336.44475           566.21781           967.70257           373.75619           918.49777           293.40495           384.26823           763.22341           364.92665           363.49263           402.62482          1035.74975           482.66894           262.92864           948.53273           483.52899           484.30647           536.32507           497.70666           940.00539           998.87960           879.35135           438.01330           821.76741          2402.36870           416.75721           943.19933           665.70431          1019.83658           701.37967           909.49004          1585.31519           340.51471           487.65422           638.49476           316.65123          1015.41498           664.28226           303.95048           953.99846           707.36281           450.81183           497.50671           418.34422          1367.97229           498.87939           307.31564           941.02336           447.47609           415.75634           496.38091           548.81644           469.43485           753.47675          1226.08564           394.50929           491.16528           349.49943          1133.26470          1072.75871           522.05351          3815.50848           497.56265           322.39605          1119.92335           862.86928           363.13965           573.26303           528.54619           451.68173           404.23907           637.12485          1167.48480           491.03074           493.76492           219.21407           973.92964           306.01616           487.24878           231.25255           914.23053           763.34541           948.10961           866.39425          1639.66607           952.16167           306.73096           288.86090           545.83844           530.49048          1122.56095           384.12041           527.76288           474.21972          1771.86914          1727.74638           433.38495           538.32077           281.27735           511.12887           284.20247           879.33363          1015.55559           459.43522           850.72538           940.06547           714.82042           478.36713           502.90352           355.26781           496.34716           372.23046           516.80798           649.39500          1931.74723           489.39015           827.01666           706.51077           937.47416           943.35482           376.81250           731.58888           275.75016           518.96980           333.21469           275.75898           948.44387          1386.90815           490.89674           239.31983           780.02131          1248.16601           495.91518           410.11151           475.28180           516.30340           981.56857           383.10151           494.37108           349.08653           545.63530           542.69818           487.77851           938.93054          1031.28601           701.99623          1411.79057          1341.05511           780.80934           357.79761           866.91337           462.17583           331.19782           529.30352           489.03493           752.33826          1044.72314          1465.43587           506.80237           367.24859           937.48021           942.94559           493.89943           961.96690          1289.41029           621.68322          1175.25005           643.11659          1254.25025           400.35336           939.56856           328.06863           370.27530           940.40971          1152.71354           604.18020           483.89722           665.67688          1100.88762           495.66735           489.92345           629.50214           931.62213           349.58227           340.25124          1087.60335           521.08326           262.41509           297.46163           607.06031           527.24133           410.79928           773.72588           493.27854           790.15338           943.33841           393.23042           499.89140           556.20967           692.20929           942.32249          2250.46611           404.89708           937.93746           332.09392           498.08856           938.80754           355.64993           952.27903           956.91038          1008.34321           623.77071           696.57417          2653.62309           507.69774           765.75262           455.41228           666.52910           629.56016           587.02039          1036.50688           745.54234          1275.91690           943.09355           946.68671           791.79299           946.38249          1798.51403           970.36901           493.02470           432.48995           325.27342           389.02169           564.29835           934.59961           417.73991           552.24877           553.94022           588.37806           497.16134           932.55976           940.92465           571.57134          1023.50413           489.15191           729.25038           709.54180           936.81353           939.02361           349.26212           960.99827           541.28260          1107.18268           939.32676           483.84806           440.92100           502.16479           261.12373           279.64565           464.69068          1008.38419           483.85316           699.64905           426.02326           530.42083           525.66360           563.56143           666.13533           485.92412          1150.92340           491.14125           540.33338           454.19429           695.27029           409.79595           276.39006           225.15132           193.97842           484.83402          1370.48300           415.06286          1801.51097           484.47283           418.62358  