# vtk DataFile Version 3.0
Output from R2
ASCII
DATASET UNSTRUCTURED_GRID
POINTS       2188 double
    -5.00000     0.00000   0.
     0.00000     0.00000   0.
     1.00000     0.05000   0.
     2.00000     0.10000   0.
     3.00000     0.12000   0.
     4.00000     0.14000   0.
     5.00000     0.18000   0.
     6.00000     0.22000   0.
     7.00000     0.20000   0.
     8.00000     0.18000   0.
     9.00000     0.11000   0.
    10.00000     0.05000   0.
    11.00000     0.02000   0.
    12.00000    -0.01000   0.
    13.00000    -0.06000   0.
    14.00000    -0.11000   0.
    15.00000    -0.15000   0.
    16.00000    -0.19000   0.
    17.00000    -0.15000   0.
    18.00000    -0.11000   0.
    19.00000    -0.05000   0.
    20.00000     0.00000   0.
    21.00000    -0.07000   0.
    22.00000    -0.13000   0.
    23.00000    -0.08000   0.
    24.00000    -0.03000   0.
    25.00000     0.03000   0.
    26.00000     0.09000   0.
    27.00000     0.09000   0.
    28.00000     0.09000   0.
    29.00000     0.12000   0.
    30.00000     0.15000   0.
    31.00000     0.16000   0.
    32.00000     0.16000   0.
    33.00000     0.21000   0.
    34.00000     0.26000   0.
    35.00000     0.24000   0.
    36.00000     0.22000   0.
    37.00000     0.35000   0.
    37.99000     0.48000   0.
    38.99000     0.48000   0.
    39.99000     0.48000   0.
    40.99000     0.55000   0.
    41.99000     0.62000   0.
    42.98000     0.73000   0.
    43.98000     0.78000   0.
    44.98000     0.83000   0.
    45.98000     0.88000   0.
    46.98000     0.93000   0.
    47.98000     0.98000   0.
    48.98000     0.94000   0.
    49.98000     0.90000   0.
    50.98000     0.86000   0.
    51.98000     0.82000   0.
    52.98000     0.88000   0.
    53.98000     0.93000   0.
    54.98000     0.89000   0.
    55.98000     0.85000   0.
    56.98000     0.80000   0.
    57.98000     0.75000   0.
    58.98000     0.78000   0.
    59.98000     0.80000   0.
    60.98000     0.80000   0.
    61.98000     0.80000   0.
    62.99000     0.81000   0.
    63.99000     0.82000   0.
    64.99000     0.81000   0.
    65.99000     0.81000   0.
    66.99000     0.83000   0.
    67.99000     0.85000   0.
    68.99000     0.87000   0.
    69.99000     0.90000   0.
    70.99000     1.00000   0.
    71.98000     1.10000   0.
    72.98000     1.20000   0.
    73.98000     1.29000   0.
    74.98000     1.34000   0.
    75.97000     1.40000   0.
    76.97000     1.46000   0.
    77.97000     1.51000   0.
    78.97000     1.41000   0.
    79.97000     1.32000   0.
    80.97000     1.37000   0.
    81.97000     1.42000   0.
    82.97000     1.37000   0.
    83.97000     1.32000   0.
    84.97000     1.35000   0.
    85.97000     1.37000   0.
    86.97000     1.40000   0.
    87.97000     1.42000   0.
    88.97000     1.39000   0.
    89.97000     1.37000   0.
    90.97000     1.42000   0.
    91.97000     1.47000   0.
    92.97000     1.48000   0.
    93.97000     1.49000   0.
    94.97000     1.50000   0.
    95.98000     1.50000   0.
    96.98000     1.52000   0.
    97.98000     1.54000   0.
    98.98000     1.54000   0.
    99.98000     1.54000   0.
   100.98000     1.58000   0.
   101.98000     1.61000   0.
   102.98000     1.60000   0.
   103.98000     1.59000   0.
   104.98000     1.62000   0.
   105.98000     1.64000   0.
   106.98000     1.68000   0.
   107.98000     1.71000   0.
   108.98000     1.73000   0.
   109.99000     1.76000   0.
   110.99000     1.81000   0.
   111.99000     1.85000   0.
   112.99000     1.84000   0.
   113.99000     1.83000   0.
   114.99000     1.84000   0.
   115.99000     1.85000   0.
   116.99000     1.86000   0.
   117.99000     1.86000   0.
   118.99000     1.83000   0.
   119.99000     1.81000   0.
   120.99000     1.86000   0.
   121.99000     1.91000   0.
   122.99000     1.96000   0.
   123.99000     2.03000   0.
   124.99000     2.14000   0.
   125.98000     2.25000   0.
   126.98000     2.34000   0.
   131.98000     2.34000   0.
    -5.00000    -5.00000   0.
    -1.74000    -5.00000   0.
     1.52000    -4.92000   0.
     4.78000    -4.83000   0.
     8.05000    -4.82000   0.
    11.31000    -4.99000   0.
    14.57000    -5.13000   0.
    17.83000    -5.12000   0.
    21.09000    -5.07000   0.
    24.35000    -5.01000   0.
    27.61000    -4.91000   0.
    30.88000    -4.85000   0.
    34.14000    -4.74000   0.
    37.40000    -4.59000   0.
    40.66000    -4.47000   0.
    43.92000    -4.22000   0.
    47.18000    -4.06000   0.
    50.44000    -4.12000   0.
    53.70000    -4.09000   0.
    56.97000    -4.20000   0.
    60.23000    -4.20000   0.
    63.49000    -4.18000   0.
    66.75000    -4.17000   0.
    70.01000    -4.10000   0.
    73.27000    -3.77000   0.
    76.53000    -3.57000   0.
    79.79000    -3.66000   0.
    83.06000    -3.64000   0.
    86.32000    -3.62000   0.
    89.58000    -3.62000   0.
    92.84000    -3.52000   0.
    96.10000    -3.50000   0.
    99.36000    -3.46000   0.
   102.62000    -3.40000   0.
   105.89000    -3.36000   0.
   109.15000    -3.26000   0.
   112.41000    -3.16000   0.
   115.67000    -3.15000   0.
   118.93000    -3.17000   0.
   122.19000    -3.08000   0.
   125.45000    -2.81000   0.
   128.71000    -2.66000   0.
   131.98000    -2.66000   0.
  -639.88000     0.00000   0.
  -639.88000  -385.93000   0.
   766.86000     2.34000   0.
   766.86000  -385.93000   0.
    -3.07439     0.00000   0.
    -1.69523     0.00000   0.
    -0.70746     0.00000   0.
     0.50000     0.02500   0.
     1.50000     0.07500   0.
     2.50000     0.11000   0.
     3.50000     0.13000   0.
     4.50000     0.16000   0.
     5.50000     0.20000   0.
     6.50000     0.21000   0.
     7.50000     0.19000   0.
     8.50000     0.14500   0.
     9.50000     0.08000   0.
    10.50000     0.03500   0.
    11.50000     0.00500   0.
    12.50000    -0.03500   0.
    13.50000    -0.08500   0.
    14.50000    -0.13000   0.
    15.50000    -0.17000   0.
    16.50000    -0.17000   0.
    17.50000    -0.13000   0.
    18.50000    -0.08000   0.
    19.50000    -0.02500   0.
    20.50000    -0.03500   0.
    21.50000    -0.10000   0.
    22.50000    -0.10500   0.
    23.50000    -0.05500   0.
    24.50000     0.00000   0.
    25.50000     0.06000   0.
    26.50000     0.09000   0.
    27.50000     0.09000   0.
    28.50000     0.10500   0.
    29.50000     0.13500   0.
    30.50000     0.15500   0.
    31.50000     0.16000   0.
    32.50000     0.18500   0.
    33.50000     0.23500   0.
    34.50000     0.25000   0.
    35.50000     0.23000   0.
    36.50000     0.28500   0.
    37.49500     0.41500   0.
    38.49000     0.48000   0.
    39.49000     0.48000   0.
    40.49000     0.51500   0.
    41.49000     0.58500   0.
    42.48500     0.67500   0.
    43.48000     0.75500   0.
    44.48000     0.80500   0.
    45.48000     0.85500   0.
    46.48000     0.90500   0.
    47.48000     0.95500   0.
    48.48000     0.96000   0.
    49.48000     0.92000   0.
    50.48000     0.88000   0.
    51.48000     0.84000   0.
    52.48000     0.85000   0.
    53.48000     0.90500   0.
    54.48000     0.91000   0.
    55.48000     0.87000   0.
    56.48000     0.82500   0.
    57.48000     0.77500   0.
    58.48000     0.76500   0.
    59.48000     0.79000   0.
    60.48000     0.80000   0.
    61.48000     0.80000   0.
    62.48500     0.80500   0.
    63.49000     0.81500   0.
    64.49000     0.81500   0.
    65.49000     0.81000   0.
    66.49000     0.82000   0.
    67.49000     0.84000   0.
    68.49000     0.86000   0.
    69.49000     0.88500   0.
    70.49000     0.95000   0.
    71.48500     1.05000   0.
    72.48000     1.15000   0.
    73.48000     1.24500   0.
    74.48000     1.31500   0.
    75.47500     1.37000   0.
    76.47000     1.43000   0.
    77.47000     1.48500   0.
    78.47000     1.46000   0.
    79.47000     1.36500   0.
    80.47000     1.34500   0.
    81.47000     1.39500   0.
    82.47000     1.39500   0.
    83.47000     1.34500   0.
    84.47000     1.33500   0.
    85.47000     1.36000   0.
    86.47000     1.38500   0.
    87.47000     1.41000   0.
    88.47000     1.40500   0.
    89.47000     1.38000   0.
    90.47000     1.39500   0.
    91.47000     1.44500   0.
    92.47000     1.47500   0.
    93.47000     1.48500   0.
    94.47000     1.49500   0.
    95.47500     1.50000   0.
    96.48000     1.51000   0.
    97.48000     1.53000   0.
    98.48000     1.54000   0.
    99.48000     1.54000   0.
   100.48000     1.56000   0.
   101.48000     1.59500   0.
   102.48000     1.60500   0.
   103.48000     1.59500   0.
   104.48000     1.60500   0.
   105.48000     1.63000   0.
   106.48000     1.66000   0.
   107.48000     1.69500   0.
   108.48000     1.72000   0.
   109.48500     1.74500   0.
   110.49000     1.78500   0.
   111.49000     1.83000   0.
   112.49000     1.84500   0.
   113.49000     1.83500   0.
   114.49000     1.83500   0.
   115.49000     1.84500   0.
   116.49000     1.85500   0.
   117.49000     1.86000   0.
   118.49000     1.84500   0.
   119.49000     1.82000   0.
   120.49000     1.83500   0.
   121.49000     1.88500   0.
   122.49000     1.93500   0.
   123.49000     1.99500   0.
   124.49000     2.08500   0.
   125.48500     2.19500   0.
   126.48000     2.29500   0.
   127.68746     2.34000   0.
   128.67523     2.34000   0.
   130.05439     2.34000   0.
    -3.37000    -5.00000   0.
    -0.11000    -4.96000   0.
     3.15000    -4.87500   0.
     6.41500    -4.82500   0.
     9.68000    -4.90500   0.
    12.94000    -5.06000   0.
    16.20000    -5.12500   0.
    19.46000    -5.09500   0.
    22.72000    -5.04000   0.
    25.98000    -4.96000   0.
    29.24500    -4.88000   0.
    32.51000    -4.79500   0.
    35.77000    -4.66500   0.
    39.03000    -4.53000   0.
    42.29000    -4.34500   0.
    45.55000    -4.14000   0.
    48.81000    -4.09000   0.
    52.07000    -4.10500   0.
    55.33500    -4.14500   0.
    58.60000    -4.20000   0.
[...]
POINT_DATA      2188
CELL_DATA      4025
SCALARS Resistivity(ohm.m) double 1
LOOKUP_TABLE default
           427.20243           435.03832           451.02119           437.12622           438.15743           291.32854           435.88376           436.63130           434.64160           424.89319           351.06458           754.49645           437.06838           434.32038           441.01592           508.43795           441.54495           432.50368           350.11436           439.28697           433.20682           722.68410           427.13237           405.82872           434.81775           335.72587           504.67414           274.31966           517.42621           194.38823           291.72924           443.74101           442.69428           434.29328           305.83905           530.44979           729.50442           702.13122           228.09744           433.09718           387.22945           663.34881         10634.58413           684.60044           433.56243           436.90738           537.36522           310.42697           448.73853           361.68720           434.60150           426.26958           290.23867           178.83122           285.11956           710.96311           425.38267           569.44630           349.98841           528.03276           436.75689           432.61124           410.70785           413.25655           434.27850          5417.12097           208.41993           446.39889           771.36524           432.52175           494.62641           871.44955           322.90629           357.37291           348.71864           404.39961           459.59054           288.62729           808.42591           490.58566           537.00655           636.29860           432.55226           270.31281           936.86573           432.62477           197.67889           432.64724           209.57713           273.12453           392.27648           436.72788           435.49445           432.95291           208.91070           491.62280           435.55252           644.50767           436.52200           475.23433           439.62277           448.06222           529.41080           551.01907          1113.61276           559.73151           436.01989           438.49839           446.24166           439.71341           363.44217           444.06703           433.56120           436.57872           436.79914           846.03860          5073.13600           433.20238           435.06537           414.28794           353.23164           444.80558           439.55063           281.56411           212.03509           450.86767           604.82611           757.40007           768.53378           434.29895           705.71565           380.37014           477.24215           423.91738           212.78593           438.62094           452.98008           445.55489           474.11739           461.79402           700.74370           210.03734           277.22585           237.09467           186.90589           432.58771           320.48290           620.11674           203.41100           441.00759           651.41681           763.54725           452.80701           452.36673           437.23474           476.98752           444.21389           382.09533           825.75769           471.39045           352.50703           674.81249           434.78636           546.01763           854.44821           271.03358           442.76117           437.53109           434.59841           789.66054           686.39997           433.00359           432.75177          1064.77224           245.36857           363.60001           340.33179           408.46447           440.90147           435.50517           488.29597           437.49476           265.30415           554.19301           382.88866           779.21330           839.55402           365.27369           770.05465           742.18666           356.02326           775.33281           434.40226           480.45160           357.69286           512.68905           432.49476           433.01945          1146.53384           438.80863           513.25835           249.69777           572.90194           448.38420           984.37920           459.94189           192.06298           653.26059           456.77906           455.93173           494.40638           754.40342           652.10870           432.76405           434.30388           225.92754           466.75103           674.09922           433.73248           442.46441           545.18921           433.08454           344.23152           637.77225           919.38710           437.45784           314.11237          2383.85593           479.20287           451.17224           447.50582           607.16263           435.76579           758.27703           498.11013           448.27162           477.41781           433.20695           432.50465           764.03117           433.50308           441.43415           529.16430           459.63234           368.94780           435.76379           509.47873           438.71840           447.91048           433.47564           344.56372           481.99015           359.39258           811.91845           622.24559           390.38558           433.52301          6376.91433           981.99296           451.30430           267.18198           643.88108           439.27715           432.77102           727.58672           433.06662           734.68611           442.42855           455.16055           489.81855           341.42204           629.45456           440.88111           737.45836           436.45182           470.54717           442.87567           633.88970           444.35835           437.83809          1139.88268           435.91934           566.27122         11773.43367           475.57527           464.62586           714.10343           433.00137           434.59794           436.25476           358.80516           418.41685           788.41067           432.74692           580.65390           533.83782           427.34549           505.59248           462.80384           284.49417           268.16973           836.66693           446.80284           638.88361           412.33597           432.82777           564.15177           531.74833           367.19980           446.66483          1507.98988           608.37913           433.35382           644.64139           455.30086           414.03197           554.22150           208.21167           445.37210           822.17829           260.17591           432.85685           433.05863           303.35352           439.10278           443.43417           230.20096           433.56364           481.63144           434.84967           228.99615           685.63090           293.58824           829.87381           196.05483           436.27214           468.07880           432.82320           433.57749           433.88762           707.42091           432.55212           432.85209           441.52577           658.22642           432.57663           345.54633           182.92675           262.25417           435.04138           253.60477           455.51025           433.53984           451.53166           445.82703           433.61238           432.95541           432.68178          1644.11256           453.09967           292.54877           430.91337           498.24069           433.92158           505.84043           455.45389           436.68819           380.87661           437.19637           519.70202           678.86916           336.44177           286.98000           678.94608          1116.51046           229.64426           430.36770           279.29042           460.89788           532.35431           730.80094           434.23322           404.53558           512.98491           434.58238           259.89786           619.65825           428.72405           461.58833         12875.40563           831.44771           280.32978           435.69273           550.70756           365.41256           432.49065           322.70613           466.10259           930.30466           433.39523           356.81656           474.76635           177.77010           238.93391           738.77183           423.62186           436.32037           220.14010           433.45716           436.30292           487.82021           435.85526           182.15381           433.38655           278.47375           432.66510           764.72220           382.25709           435.99822           609.69147           439.00476           437.58737           637.64578           237.14752           437.64250           462.49742           751.01153           510.69083           430.12926           654.43507           432.92098           382.39277           507.35067           511.83392           433.93486           840.65156           433.62136          1475.81217           250.20164           613.81973           523.43268           436.66268           394.03484           470.08850           439.91678           485.66009           468.49325           399.35886           388.70060           439.06694           452.80940           295.56281           190.52050           433.42638           446.83343           433.95568           248.62400           840.46324           439.52250           701.15635           567.54614           424.81730           433.68137           759.83524          1028.51618           181.30459           355.71953           435.09474           226.08567           345.01257           422.00674           212.88275           433.91034           351.58479           497.68429           867.73831           441.13013           484.61152           423.21631           441.56331           795.40623           600.49002           236.71323           435.75941           200.81174           597.77559           429.26809           431.86652           509.37134          2226.03009          1161.17956           435.00716           433.56800           413.36798           350.45091           646.88904           610.74808           743.23600           433.00002           432.74271           438.79008           350.08208           439.48516           890.66083           432.51510           389.09525           433.61789           458.31400           432.88695           436.30584           433.76592           432.49388           432.69788           432.88229           432.50603           271.17240           371.27884           428.41037           213.50128           504.23580           440.96344           361.65076           432.83512           432.79126           456.21893           269.32575           432.53250           435.15235           316.88078           441.37443           432.73139           387.86462          1700.11836           496.60663           432.65663           639.19426           524.27280           440.20362           433.58947           432.93722           381.27579           206.58287           251.28261           323.80078           254.26414           472.23435           442.96671           436.46644           469.00451           200.72227           329.42102           457.85207           572.64386           435.35462           503.72404           432.79683           460.37887           206.14322           549.27367           174.03264           431.25266           434.99334           199.51198           436.29818           329.39586           451.86439           995.06405          1142.47918           399.18032           435.83520           432.68354           221.19917           434.23935           454.69343           257.67575           483.47611           435.17599           282.56517           434.58140           433.40748           550.61717           442.95525           480.35238           432.74922           432.48777           586.66914           575.95963           432.53385           432.78183           432.59913           550.66521           871.81786          1161.30365           997.34348          1027.43624          1079.98654           437.66418           403.66547           438.33532           432.66853           432.05412           370.87685           433.23572           432.64174           433.44776           358.66582           221.11050           410.12500           432.86477           432.48331           432.65087           354.96067           432.65138           408.00212           903.88620           432.74259           434.04051           436.03013           437.47162           646.70956           454.63747           248.30450           433.34632           432.67192           436.37771           623.48105          1769.69367           813.72586           433.29882           833.98171           306.69317           432.68703           553.00723           808.69005           487.66413           432.49054           432.49569           435.04629           434.16707           432.60564           432.87001           432.48783           272.78653           278.27159           441.37986           651.77291           326.79114           314.82466           663.90860          3967.33317           432.66011           285.55770           461.46778           467.16187           748.65877           433.04955           442.93228           252.31707           432.95454           271.56297           315.48082           723.35047           315.16674           493.50342           433.05600           481.35983           454.81155           432.71501           432.71842           321.77156           406.79386           513.65118           432.51499           449.31655           432.80319           315.00199           484.67854           432.74713           432.66865           432.54501           618.27387           447.97420           693.49916           433.50921           747.21155           574.04695           516.73570           533.35287           432.75742           693.52237           434.07953           771.43109           809.35927           470.93969           436.10926           433.12702           433.67007           432.65700           432.89801           433.61413           709.41674           740.36362          1190.95040           716.45370           170.74659           432.38699           433.04240           432.94829           432.78170           246.17590           433.41167           323.61062           443.43770           434.17584           366.25407           433.29075           199.75446           583.87929           698.62617           493.04170           393.57532           415.26692           744.64552           433.27849           171.09220           432.90118           432.47737           432.48239           475.39065           433.32989           432.66381           435.25814           460.85365           424.03187           678.84730          6210.16568           417.83007           432.95287           445.45628           435.84051           796.26697           442.52796           499.54963           377.44470           432.53064           660.98811           393.14300           436.08489           469.73809           388.68776           433.73415           391.15483           739.90426           433.17835           421.04793           465.58995           437.09497           249.52745           432.71123           428.66579           691.73061           433.02108           439.33406           432.10501           445.80049           449.63514           411.68939           433.54830           481.00770           441.78522           438.13076           788.41773         29785.25792           433.40555           183.71003           444.13055           710.66582           325.17111           750.95582           672.63806           543.36708           374.22716           438.43294           562.87078           432.59353           432.71518           236.46617           434.50520           261.28926           396.49617           357.22458           436.39934           518.50723           432.91643           638.21081           544.41343           433.19403           253.17444           290.61273           544.86937           435.47688           455.34522           348.75163           434.25572           667.54879           601.57219           531.25189           425.43972           436.86134           264.97058           433.11827           317.30238           474.26628           453.30711           430.78851           452.89156           432.87461           458.97990           432.97027           432.87175           293.60614           432.71037           329.70512           251.63515           541.04813           966.72159           432.55813           438.08399          1003.38014           471.00767           433.17190           369.76252           447.37531           292.42825           433.69581           371.81415           311.02278           433.00263           958.23418           432.64756           196.12868           859.59168           453.25902           432.96627           407.96355           284.26441           434.84729           434.76324           275.77137           432.84352           320.24064           458.19332           679.31031           432.52813           433.12869           436.30032           963.76198           471.99735           857.70099           562.33209           351.54798           437.29955           460.62187           337.09081           465.79546           433.53933           716.75723           436.80122           479.29012           636.26419           308.23039           606.70806           432.68280           432.64449           433.89194           456.17368           528.69952           445.11891           827.40736           452.70327           400.63876           432.80951           318.60381           314.99357           432.69770           443.46626           862.18112           432.48057           454.85277           439.60705           432.72311           432.56054           442.20503           456.89804           590.83393           321.78713           438.99556           480.03741           274.37962           323.64093           540.95143           433.42034           418.29582           698.45837           433.66511           729.90820           432.72779           473.85065           432.77573           435.31377          1194.22181           432.65914           780.65244           413.56505           432.99163           261.50740           433.26789           433.48609           508.73240           434.15154           435.78299           435.53882           450.10054           488.79245          1530.63620           432.97744           731.57646           431.98105          1200.35708          1160.08584          1105.72404           570.94586           956.73919           457.65480           432.68752           434.62511           703.59705           433.85668           639.20413           437.41576           432.74277           422.27722           425.93061           387.03152           433.86704           433.01429           319.63318           434.76029           987.40468           445.26690           433.09330           433.38628           433.90794           435.03907           441.59255           432.57848           570.78726           600.30933           433.33695           432.67927           526.41552           433.93758           680.00372           540.09705           432.69455           432.48211           427.19453           433.11542           211.27786           399.40562           431.52006           463.02678           433.47673           729.89310           423.36131           435.01830           433.94535           440.94297           527.42409           432.49767           508.59183           433.81852           877.10052           429.91150           824.55130           241.13981           259.52923           263.00791           248.35648           432.48872           743.69896           361.42104           828.09710           432.49046           271.76304  