# vtk DataFile Version 3.0
Output from R2
ASCII
DATASET UNSTRUCTURED_GRID
POINTS       2188 double
    -5.00000     0.00000   0.
     0.00000     0.00000   0.
     1.00000     0.05000   0.
     2.00000     0.10000   0.
     3.00000     0.12000   0.
     4.00000     0.14000   0.
     5.00000     0.18000   0.
     6.00000     0.22000   0.
     7.00000     0.20000   0.
     8.00000     0.18000   0.
     9.00000     0.11000   0.
    10.00000     0.05000   0.
    11.00000     0.02000   0.
    12.00000    -0.01000   0.
    13.00000    -0.06000   0.
    14.00000    -0.11000   0.
    15.00000    -0.15000   0.
    16.00000    -0.19000   0.
    17.00000    -0.15000   0.
    18.00000    -0.11000   0.
    19.00000    -0.05000   0.
    20.00000     0.00000   0.
    21.00000    -0.07000   0.
    22.00000    -0.13000   0.
    23.00000    -0.08000   0.
    24.00000    -0.03000   0.
    25.00000     0.03000   0.
    26.00000     0.09000   0.
    27.00000     0.09000   0.
    28.00000     0.09000   0.
    29.00000     0.12000   0.
    30.00000     0.15000   0.
    31.00000     0.16000   0.
    32.00000     0.16000   0.
    33.00000     0.21000   0.
    34.00000     0.26000   0.
    35.00000     0.24000   0.
    36.00000     0.22000   0.
    37.00000     0.35000   0.
    37.99000     0.48000   0.
    38.99000     0.48000   0.
    39.99000     0.48000   0.
    40.99000     0.55000   0.
    41.99000     0.62000   0.
    42.98000     0.73000   0.
    43.98000     0.78000   0.
    44.98000     0.83000   0.
    45.98000     0.88000   0.
    46.98000     0.93000   0.
    47.98000     0.98000   0.
    48.98000     0.94000   0.
    49.98000     0.90000   0.
    50.98000     0.86000   0.
    51.98000     0.82000   0.
    52.98000     0.88000   0.
    53.98000     0.93000   0.
    54.98000     0.89000   0.
    55.98000     0.85000   0.
    56.98000     0.80000   0.
    57.98000     0.75000   0.
    58.98000     0.78000   0.
    59.98000     0.80000   0.
    60.98000     0.80000   0.
    61.98000     0.80000   0.
    62.99000     0.81000   0.
    63.99000     0.82000   0.
    64.99000     0.81000   0.
    65.99000     0.81000   0.
    66.99000     0.83000   0.
    67.99000     0.85000   0.
    68.99000     0.87000   0.
    69.99000     0.90000   0.
    70.99000     1.00000   0.
    71.98000     1.10000   0.
    72.98000     1.20000   0.
    73.98000     1.29000   0.
    74.98000     1.34000   0.
    75.97000     1.40000   0.
    76.97000     1.46000   0.
    77.97000     1.51000   0.
    78.97000     1.41000   0.
    79.97000     1.32000   0.
    80.97000     1.37000   0.
    81.97000     1.42000   0.
    82.97000     1.37000   0.
    83.97000     1.32000   0.
    84.97000     1.35000   0.
    85.97000     1.37000   0.
    86.97000     1.40000   0.
    87.97000     1.42000   0.
    88.97000     1.39000   0.
    89.97000     1.37000   0.
    90.97000     1.42000   0.
    91.97000     1.47000   0.
    92.97000     1.48000   0.
    93.97000     1.49000   0.
    94.97000     1.50000   0.
    95.98000     1.50000   0.
    96.98000     1.52000   0.
    97.98000     1.54000   0.
    98.98000     1.54000   0.
    99.98000     1.54000   0.
   100.98000     1.58000   0.
   101.98000     1.61000   0.
   102.98000     1.60000   0.
   103.98000     1.59000   0.
   104.98000     1.62000   0.
   105.98000     1.64000   0.
   106.98000     1.68000   0.
   107.98000     1.71000   0.
   108.98000     1.73000   0.
   109.99000     1.76000   0.
   110.99000     1.81000   0.
   111.99000     1.85000   0.
   112.99000     1.84000   0.
   113.99000     1.83000   0.
   114.99000     1.84000   0.
   115.99000     1.85000   0.
   116.99000     1.86000   0.
   117.99000     1.86000   0.
   118.99000     1.83000   0.
   119.99000     1.81000   0.
   120.99000     1.86000   0.
   121.99000     1.91000   0.
   122.99000     1.96000   0.
   123.99000     2.03000   0.
   124.99000     2.14000   0.
   125.98000     2.25000   0.
   126.98000     2.34000   0.
   131.98000     2.34000   0.
    -5.00000    -5.00000   0.
    -1.74000    -5.00000   0.
     1.52000    -4.92000   0.
     4.78000    -4.83000   0.
     8.05000    -4.82000   0.
    11.31000    -4.99000   0.
    14.57000    -5.13000   0.
    17.83000    -5.12000   0.
    21.09000    -5.07000   0.
    24.35000    -5.01000   0.
    27.61000    -4.91000   0.
    30.88000    -4.85000   0.
    34.14000    -4.74000   0.
    37.40000    -4.59000   0.
    40.66000    -4.47000   0.
    43.92000    -4.22000   0.
    47.18000    -4.06000   0.
    50.44000    -4.12000   0.
    53.70000    -4.09000   0.
    56.97000    -4.20000   0.
    60.23000    -4.20000   0.
    63.49000    -4.18000   0.
    66.75000    -4.17000   0.
    70.01000    -4.10000   0.
    73.27000    -3.77000   0.
    76.53000    -3.57000   0.
    79.79000    -3.66000   0.
    83.06000    -3.64000   0.
    86.32000    -3.62000   0.
    89.58000    -3.62000   0.
    92.84000    -3.52000   0.
    96.10000    -3.50000   0.
    99.36000    -3.46000   0.
   102.62000    -3.40000   0.
   105.89000    -3.36000   0.
   109.15000    -3.26000   0.
   112.41000    -3.16000   0.
   115.67000    -3.15000   0.
   118.93000    -3.17000   0.
   122.19000    -3.08000   0.
   125.45000    -2.81000   0.
   128.71000    -2.66000   0.
   131.98000    -2.66000   0.
  -639.88000     0.00000   0.
  -639.88000  -385.93000   0.
   766.86000     2.34000   0.
   766.86000  -385.93000   0.
    -3.07439     0.00000   0.
    -1.69523     0.00000   0.
    -0.70746     0.00000   0.
     0.50000     0.02500   0.
     1.50000     0.07500   0.
     2.50000     0.11000   0.
     3.50000     0.13000   0.
     4.50000     0.16000   0.
     5.50000     0.20000   0.
     6.50000     0.21000   0.
     7.50000     0.19000   0.
     8.50000     0.14500   0.
     9.50000     0.08000   0.
    10.50000     0.03500   0.
    11.50000     0.00500   0.
    12.50000    -0.03500   0.
    13.50000    -0.08500   0.
    14.50000    -0.13000   0.
    15.50000    -0.17000   0.
    16.50000    -0.17000   0.
    17.50000    -0.13000   0.
    18.50000    -0.08000   0.
    19.50000    -0.02500   0.
    20.50000    -0.03500   0.
    21.50000    -0.10000   0.
    22.50000    -0.10500   0.
    23.50000    -0.05500   0.
    24.50000     0.00000   0.
    25.50000     0.06000   0.
    26.50000     0.09000   0.
    27.50000     0.09000   0.
    28.50000     0.10500   0.
    29.50000     0.13500   0.
    30.50000     0.15500   0.
    31.50000     0.16000   0.
    32.50000     0.18500   0.
    33.50000     0.23500   0.
    34.50000     0.25000   0.
    35.50000     0.23000   0.
    36.50000     0.28500   0.
    37.49500     0.41500   0.
    38.49000     0.48000   0.
    39.49000     0.48000   0.
    40.49000     0.51500   0.
    41.49000     0.58500   0.
    42.48500     0.67500   0.
    43.48000     0.75500   0.
    44.48000     0.80500   0.
    45.48000     0.85500   0.
    46.48000     0.90500   0.
    47.48000     0.95500   0.
    48.48000     0.96000   0.
    49.48000     0.92000   0.
    50.48000     0.88000   0.
    51.48000     0.84000   0.
    52.48000     0.85000   0.
    53.48000     0.90500   0.
    54.48000     0.91000   0.
    55.48000     0.87000   0.
    56.48000     0.82500   0.
    57.48000     0.77500   0.
    58.48000     0.76500   0.
    59.48000     0.79000   0.
    60.48000     0.80000   0.
    61.48000     0.80000   0.
    62.48500     0.80500   0.
    63.49000     0.81500   0.
    64.49000     0.81500   0.
    65.49000     0.81000   0.
    66.49000     0.82000   0.
    67.49000     0.84000   0.
    68.49000     0.86000   0.
    69.49000     0.88500   0.
    70.49000     0.95000   0.
    71.48500     1.05000   0.
    72.48000     1.15000   0.
    73.48000     1.24500   0.
    74.48000     1.31500   0.
    75.47500     1.37000   0.
    76.47000     1.43000   0.
    77.47000     1.48500   0.
    78.47000     1.46000   0.
    79.47000     1.36500   0.
    80.47000     1.34500   0.
    81.47000     1.39500   0.
    82.47000     1.39500   0.
    83.47000     1.34500   0.
    84.47000     1.33500   0.
    85.47000     1.36000   0.
    86.47000     1.38500   0.
    87.47000     1.41000   0.
    88.47000     1.40500   0.
    89.47000     1.38000   0.
    90.47000     1.39500   0.
    91.47000     1.44500   0.
    92.47000     1.47500   0.
    93.47000     1.48500   0.
    94.47000     1.49500   0.
    95.47500     1.50000   0.
    96.48000     1.51000   0.
    97.48000     1.53000   0.
    98.48000     1.54000   0.
    99.48000     1.54000   0.
   100.48000     1.56000   0.
   101.48000     1.59500   0.
   102.48000     1.60500   0.
   103.48000     1.59500   0.
   104.48000     1.60500   0.
   105.48000     1.63000   0.
   106.48000     1.66000   0.
   107.48000     1.69500   0.
   108.48000     1.72000   0.
   109.48500     1.74500   0.
   110.49000     1.78500   0.
   111.49000     1.83000   0.
   112.49000     1.84500   0.
   113.49000     1.83500   0.
   114.49000     1.83500   0.
   115.49000     1.84500   0.
   116.49000     1.85500   0.
   117.49000     1.86000   0.
   118.49000     1.84500   0.
   119.49000     1.82000   0.
   120.49000     1.83500   0.
   121.49000     1.88500   0.
   122.49000     1.93500   0.
   123.49000     1.99500   0.
   124.49000     2.08500   0.
   125.48500     2.19500   0.
   126.48000     2.29500   0.
   127.68746     2.34000   0.
   128.67523     2.34000   0.
   130.05439     2.34000   0.
    -3.37000    -5.00000   0.
    -0.11000    -4.96000   0.
     3.15000    -4.87500   0.
     6.41500    -4.82500   0.
     9.68000    -4.90500   0.
    12.94000    -5.06000   0.
    16.20000    -5.12500   0.
    19.46000    -5.09500   0.
    22.72000    -5.04000   0.
    25.98000    -4.96000   0.
    29.24500    -4.88000   0.
    32.51000    -4.79500   0.
    35.77000    -4.66500   0.
    39.03000    -4.53000   0.
    42.29000    -4.34500   0.
    45.55000    -4.14000   0.
    48.81000    -4.09000   0.
    52.07000    -4.10500   0.
    55.33500    -4.14500   0.
    58.60000    -4.20000   0.
[...]
POINT_DATA      2188
CELL_DATA      4025
SCALARS Resistivity(ohm.m) double 1
LOOKUP_TABLE default
           341.41576           544.28469           342.27979           320.68919           323.78903           453.00640           320.29898           319.58583           323.85268           342.64833           342.48766           341.92236           321.74909           326.16118           320.12441           350.09696           317.81976           323.13352           344.15433           323.73313           325.71159           604.63308           330.25730           337.48792           320.88597           464.63007           382.97595           283.11764           366.54063           197.41985           450.26273           326.52911           317.05789           324.67519           293.80305           522.02246           356.93879           391.18396           185.61941           325.47719           333.62572           387.89983          4732.52694           421.87486           321.63237           321.37894           283.33300           289.18172           322.06930           352.85044           325.03828           329.35591           185.52545           291.74893           323.34114           304.47736           337.22102           539.14302           350.88335           308.65728           320.18683           322.53727           333.48702           391.48379           323.77970          2198.40469           307.99523           344.58303           190.02263           323.19269           362.95130           283.90183           235.28059           352.11867           393.91987           344.84356           567.42351           347.22099           300.64974           376.51031           370.15162           274.95565           322.59304           178.24585           182.58267           323.41533           211.80173           335.10080           181.99995           261.79099           296.14761           319.75077           330.46762           324.76631           213.29064           314.18702           320.75490           357.40133           321.14742           333.46360           318.76559           318.05609           297.39309           290.01325           199.21855           511.26475           330.82689           322.73446           325.62761           323.14703           352.83744           342.96152           321.50633           377.05531           320.33462           281.03153          2201.45440           333.44469           320.57764           257.59853           164.27394           320.65646           338.32320           186.65513           218.03513           336.18974           515.85801           588.00015           212.23512           329.25412           380.01705           170.06877           304.68911           342.31598           208.01885           320.21302           313.63034           317.61836           302.11063           309.10128           583.47616           177.32973           233.72242           253.21480           223.48855           323.28340           174.33824           377.35967           224.27184           324.26378           355.44195           269.64614           313.14053           315.80128           334.20229           306.30887           319.59127           162.07025           447.62334           360.72908           194.31909           333.51650           324.35459           230.32901           253.15077           203.12568           317.86142           320.31981           323.84764           264.25027           568.71518           323.43485           322.43525           193.12684           426.22970           354.31841           240.00492           159.76373           319.79481           322.69530           310.29392           320.91737           236.20931           472.68118           353.85688           492.31046           269.59884           300.42856           168.49905           503.59932           278.47564           252.67386           328.82035           353.80475           165.10398           386.09399           323.02216           323.95513           710.65980           319.41002           321.23373           363.53966           351.88624           315.63122           219.25993           162.05926           257.48084           648.64914           313.70123           314.82965           369.70520           288.32118           685.08905           326.81148           321.12124           223.31052           309.28263           316.35292           452.96165           319.00564           356.74861           327.70618           333.73738           517.82509           209.55044           322.86378           183.31557          1206.66712           344.59937           317.92398           341.75429           161.32826           323.38757           330.02811           291.86192           320.10043           171.24311           321.84652           322.70294           221.87496           327.90951           318.61374           302.07078           307.68537           337.44746           322.68313           377.66748           318.48776           316.49343           325.38089           302.21146           306.44124           356.15567           231.23345           611.88280           165.46546           325.50532          3108.81386           190.53151           316.91728           255.43075           313.50447           321.19637           326.50762           232.94372           321.96998           280.05743           336.77169           312.72330           344.50774           288.64264           451.24852           339.60093           279.88462           323.32237           313.01209           340.97936           360.33088           317.75796           335.53369           623.30952           320.28607           298.67177          5166.18782           301.38262           307.81254           295.19384           324.46906           323.61438           328.75536           352.21585           338.46880           234.79871           322.33747           275.91431           286.42873           304.35503           290.35500           308.69240           296.00690           192.18430           251.97949           318.40566           327.68723           170.85965           325.78606           686.75814           296.62631           352.75854           314.98766           808.02222           424.62085           321.68136           339.78286           315.93512           337.36013           285.92949           210.86933           315.72683           167.86965           330.64416           325.54592           327.34086           208.87734           320.58004           333.86498           214.07587           329.28439           365.15984           329.02442           225.43997           195.19309           186.25047           268.86544           192.11309           320.79331           303.21089           327.56898           327.30326           324.60612           307.53828           323.46176           327.64469           320.36427           291.74020           323.56059           477.65573           235.48325           407.40747           328.13951           237.75589           344.79317           324.97100           318.40152           323.22913           328.39998           327.28437           324.01431           893.23405           311.53673           313.35627           323.28475           300.98039           324.11426           304.56051           166.49704           323.31279           239.86336           324.18108           349.20256           244.88218           393.84850           185.24129           384.93681           744.04594           198.70772           335.53664           293.49321           356.57827           210.55410           229.52799           324.27461           282.41179           294.06274           329.81711           267.07752           534.38460           335.70113           346.13660          5797.73141           258.26992           277.30638           328.09747           571.18934           181.07412           322.75385           321.06973           354.59964           598.77684           325.09325           350.07159           317.99800           214.02215           243.45479           211.57948           187.63663           321.45559           418.74305           328.52999           321.76456           366.41889           320.77527           249.18396           332.72612           185.14925           322.35129           272.77720           388.92660           325.39987           379.35366           324.53730           319.17145           340.68963           215.62391           319.19978           315.83324           230.47353           367.11998           309.92316           649.35267           325.69601           352.98559           301.43529           297.39118           329.61736           190.79679           331.67537           825.25395           355.80991           295.93419           348.01393           319.65962           353.82533           320.60519           321.17830           296.48142           339.83713           335.28344           354.04901           336.45866           322.28953           212.86000           214.10373           332.46777           333.97631           325.15820           405.07224           312.49775           319.62836           360.45873           321.77593           179.74438           323.98007           474.53553           598.25721           225.28545           342.05962           329.98001           427.27729           314.98803           653.22907           207.05568           324.37900           381.99779           307.13848           266.92953           322.48862           686.57783           337.06869           317.22848           248.19530           565.24203           202.44138           324.33868           421.80846           351.57743           339.51984           334.07860           564.42572          1246.95243           654.58796           323.15684           321.47144           284.16372           349.60897           256.05309           625.21789           330.67536           325.19721           327.43151           318.76895           300.44147           318.24212           196.47040           323.29313           307.88971           331.05209           326.36061           327.34909           320.97746           325.64332           323.20163           323.84632           323.32599           322.62489           288.88609           356.04751           308.69976           445.85388           314.20603           321.10055           351.17355           322.14728           327.47637           315.51637           289.79110           323.35937           323.73959           330.04422           326.13313           324.19347           352.97240           867.74680           302.90037           327.00056           666.49976           382.51614           322.00748           324.70221           322.02280           357.52591           191.73263           371.02978           362.62122           356.18670           308.12450           323.28314           333.49744           351.10985           205.62266           419.21197           309.49610           629.05337           324.39757           172.37792           327.38425           308.55179           223.81614           355.25522           244.90557           329.38003           327.89850           234.98836           326.62927           336.06196           318.51064           271.82989           180.67491           353.41078           322.22476           323.46785           215.19322           324.00066           272.92355           270.42471           300.55520           326.94615           277.82251           327.63298           327.05061           303.71742           321.39711           301.95844           326.43988           323.01122           430.34791           413.18668           323.30646           325.71479           322.43349           203.64525           324.29519           200.21357           367.47440           289.86440           233.28745           333.31897           352.57095           321.67146           322.41094           336.06513           442.23097           325.01392           323.83436           324.14864           658.67509           206.34512           325.74680           326.83658           322.94909           326.86288           170.49408           327.13791           351.72142           412.30982           322.24456           326.44751           320.33019           319.24257           297.02926           310.65310           210.50240           321.62910           327.35455           322.25198           441.47815          1180.45745           302.52321           326.19116           449.53482           324.99576           326.69738           372.61456           490.00114           160.81558           323.17220           322.93803           323.47502           328.30968           323.69788           327.76777           323.07622           367.89285           254.96671           332.15518           161.54748           320.98909           170.63835           305.38975          2041.83370           326.71114           287.19375           339.50760           304.51751           501.30501           328.20444           316.34155           233.09992           328.04866           274.33961           288.30098           237.64244           354.02574           305.94583           321.90960           305.72222           348.39531           326.24202           325.98989           319.86416           350.23121           391.49746           322.55838           313.33164           326.89457           217.18543           301.25813           325.87967           326.42991           322.51375           167.39561           344.71962           483.53363           329.11306           472.04932           186.38495           321.39950           307.64492           327.27939           497.06676           328.31838           307.43202           224.00220           305.25508           326.72836           323.27609           325.39397           326.57257           324.94047           328.94749           255.21366           258.53454           943.80306           536.10247           234.62983           333.79781           325.28940           324.13869           324.42939           279.17912           326.39298           302.63180           316.83083           329.65558           325.44048           325.02481           247.37595           590.83379           249.04548           523.58259           353.03973           349.40504           555.37600           333.33410           228.61322           327.87893           322.71430           322.87550           309.24646           327.36701           326.33524           331.71259           313.98846           326.91637           277.00335          2448.78402           343.06360           326.93717           315.22885           333.13001           341.59020           321.69774           383.83368           353.77662           322.98509           283.26981           643.75780           332.51703           303.37458           688.62165           328.20564           451.19380           533.73018           326.32408           346.78403           362.27378           325.84487           243.54578           326.49705           341.25179           589.24917           325.52248           319.48148           336.62134           316.36089           349.74433           350.47597           330.87830           617.33615           341.89822           337.03375           331.52095         14081.17688           327.87794           447.76757           339.99629           494.56673           393.41430           232.89609           344.16401           353.33711           294.53565           318.53626           352.49815           323.01440           323.67260           206.56983           330.04232           253.73677           265.63106           304.42459           324.18700           285.46130           327.73660           300.89210           393.25563           328.43063           392.02792           301.20454           300.77349           322.84170           336.36960           186.75040           322.71819           370.33128           417.70393           401.70307           344.00814           321.42857           261.77616           322.80508           330.58144           309.45120           325.18330           338.82430           502.34886           326.49410           308.79907           334.42329           322.95300           182.41039           323.02507           279.03286           353.37527           287.83905           568.12320           322.96397           321.21002           253.65112           314.57076           327.07593           310.71797           315.56909           311.59807           323.09688           353.30238           303.85439           327.82752           585.99266           323.72693           200.44380           215.19411           351.12209           325.21284           312.83652           181.87785           325.05980           330.57460           200.60025           324.65234           374.49242           312.97318           318.80446           322.77315           326.50606           333.90035           170.51922           366.28913           505.17569           273.92994           314.03853           322.25908           312.21758           324.01146           312.30506           331.58589           205.75291           334.88942           371.37012           297.30215           289.76458           319.23609           326.99587           322.97216           329.24085           355.22024           291.39763           345.44761           289.66611           352.18382           307.40096           326.42633           306.54235           282.81440           326.40224           343.52958           176.28167           322.76756           310.07051           339.24081           323.33309           322.77417           316.77667           318.10343           659.32111           292.01458           338.12030           309.32867           265.80053           305.40444           292.75359           322.03922           348.00966           189.94096           330.26196           294.41738           326.87553           432.78308           322.92733           320.80998           188.29394           327.31793           526.21252           345.62345           326.40057           275.74163           326.81023           326.56137           571.08917           327.63516           326.90452           332.34824           312.31139           161.17191           768.78156           322.81633           384.22882           325.47424           215.82427           260.80910           325.49715           330.96865           234.85745           353.61521           327.28355           326.76622           236.46372           327.29679           429.06190           326.88521           324.07527           325.63902           653.21847           304.38146           321.28722           326.03659           440.95908           321.15217           376.02214           315.22996           325.83263           325.95881           326.62919           320.56989           329.52559           323.47894           159.58701           196.93228           326.40547           326.13873           647.36584           329.00234           183.23592           334.03428           326.21285           322.61733           342.47452           324.62568           376.38601           455.40825           337.65394           322.21639           332.07372           266.48694           345.32222           323.13144           322.79821           318.12892           287.05154           323.15323           335.85523           330.48489           411.03089           339.90057           324.29389           308.09468           441.70412           285.28781           176.27147           322.87508           438.86667           699.36199           495.98758           322.64284           198.26703  