# vtk DataFile Version 3.0
Output from R2
ASCII
DATASET UNSTRUCTURED_GRID
POINTS       2188 double
    -5.00000     0.00000   0.
     0.00000     0.00000   0.
     1.00000     0.05000   0.
     2.00000     0.10000   0.
     3.00000     0.12000   0.
     4.00000     0.14000   0.
     5.00000     0.18000   0.
     6.00000     0.22000   0.
     7.00000     0.20000   0.
     8.00000     0.18000   0.
     9.00000     0.11000   0.
    10.00000     0.05000   0.
    11.00000     0.02000   0.
    12.00000    -0.01000   0.
    13.00000    -0.06000   0.
    14.00000    -0.11000   0.
    15.00000    -0.15000   0.
    16.00000    -0.19000   0.
    17.00000    -0.15000   0.
    18.00000    -0.11000   0.
    19.00000    -0.05000   0.
    20.00000     0.00000   0.
    21.00000    -0.07000   0.
    22.00000    -0.13000   0.
    23.00000    -0.08000   0.
    24.00000    -0.03000   0.
    25.00000     0.03000   0.
    26.00000     0.09000   0.
    27.00000     0.09000   0.
    28.00000     0.09000   0.
    29.00000     0.12000   0.
    30.00000     0.15000   0.
    31.00000     0.16000   0.
    32.00000     0.16000   0.
    33.00000     0.21000   0.
    34.00000     0.26000   0.
    35.00000     0.24000   0.
    36.00000     0.22000   0.
    37.00000     0.35000   0.
    37.99000     0.48000   0.
    38.99000     0.48000   0.
    39.99000     0.48000   0.
    40.99000     0.55000   0.
    41.99000     0.62000   0.
    42.98000     0.73000   0.
    43.98000     0.78000   0.
    44.98000     0.83000   0.
    45.98000     0.88000   0.
    46.98000     0.93000   0.
    47.98000     0.98000   0.
    48.98000     0.94000   0.
    49.98000     0.90000   0.
    50.98000     0.86000   0.
    51.98000     0.82000   0.
    52.98000     0.88000   0.
    53.98000     0.93000   0.
    54.98000     0.89000   0.
    55.98000     0.85000   0.
    56.98000     0.80000   0.
    57.98000     0.75000   0.
    58.98000     0.78000   0.
    59.98000     0.80000   0.
    60.98000     0.80000   0.
    61.98000     0.80000   0.
    62.99000     0.81000   0.
    63.99000     0.82000   0.
    64.99000     0.81000   0.
    65.99000     0.81000   0.
    66.99000     0.83000   0.
    67.99000     0.85000   0.
    68.99000     0.87000   0.
    69.99000     0.90000   0.
    70.99000     1.00000   0.
    71.98000     1.10000   0.
    72.98000     1.20000   0.
    73.98000     1.29000   0.
    74.98000     1.34000   0.
    75.97000     1.40000   0.
    76.97000     1.46000   0.
    77.97000     1.51000   0.
    78.97000     1.41000   0.
    79.97000     1.32000   0.
    80.97000     1.37000   0.
    81.97000     1.42000   0.
    82.97000     1.37000   0.
    83.97000     1.32000   0.
    84.97000     1.35000   0.
    85.97000     1.37000   0.
    86.97000     1.40000   0.
    87.97000     1.42000   0.
    88.97000     1.39000   0.
    89.97000     1.37000   0.
    90.97000     1.42000   0.
    91.97000     1.47000   0.
    92.97000     1.48000   0.
    93.97000     1.49000   0.
    94.97000     1.50000   0.
    95.98000     1.50000   0.
    96.98000     1.52000   0.
    97.98000     1.54000   0.
    98.98000     1.54000   0.
    99.98000     1.54000   0.
   100.98000     1.58000   0.
   101.98000     1.61000   0.
   102.98000     1.60000   0.
   103.98000     1.59000   0.
   104.98000     1.62000   0.
   105.98000     1.64000   0.
   106.98000     1.68000   0.
   107.98000     1.71000   0.
   108.98000     1.73000   0.
   109.99000     1.76000   0.
   110.99000     1.81000   0.
   111.99000     1.85000   0.
   112.99000     1.84000   0.
   113.99000     1.83000   0.
   114.99000     1.84000   0.
   115.99000     1.85000   0.
   116.99000     1.86000   0.
   117.99000     1.86000   0.
   118.99000     1.83000   0.
   119.99000     1.81000   0.
   120.99000     1.86000   0.
   121.99000     1.91000   0.
   122.99000     1.96000   0.
   123.99000     2.03000   0.
   124.99000     2.14000   0.
   125.98000     2.25000   0.
   126.98000     2.34000   0.
   131.98000     2.34000   0.
    -5.00000    -5.00000   0.
    -1.74000    -5.00000   0.
     1.52000    -4.92000   0.
     4.78000    -4.83000   0.
     8.05000    -4.82000   0.
    11.31000    -4.99000   0.
    14.57000    -5.13000   0.
    17.83000    -5.12000   0.
    21.09000    -5.07000   0.
    24.35000    -5.01000   0.
    27.61000    -4.91000   0.
    30.88000    -4.85000   0.
    34.14000    -4.74000   0.
    37.40000    -4.59000   0.
    40.66000    -4.47000   0.
    43.92000    -4.22000   0.
    47.18000    -4.06000   0.
    50.44000    -4.12000   0.
    53.70000    -4.09000   0.
    56.97000    -4.20000   0.
    60.23000    -4.20000   0.
    63.49000    -4.18000   0.
    66.75000    -4.17000   0.
    70.01000    -4.10000   0.
    73.27000    -3.77000   0.
    76.53000    -3.57000   0.
    79.79000    -3.66000   0.
    83.06000    -3.64000   0.
    86.32000    -3.62000   0.
    89.58000    -3.62000   0.
    92.84000    -3.52000   0.
    96.10000    -3.50000   0.
    99.36000    -3.46000   0.
   102.62000    -3.40000   0.
   105.89000    -3.36000   0.
   109.15000    -3.26000   0.
   112.41000    -3.16000   0.
   115.67000    -3.15000   0.
   118.93000    -3.17000   0.
   122.19000    -3.08000   0.
   125.45000    -2.81000   0.
   128.71000    -2.66000   0.
   131.98000    -2.66000   0.
  -639.88000     0.00000   0.
  -639.88000  -385.93000   0.
   766.86000     2.34000   0.
   766.86000  -385.93000   0.
    -3.07439     0.00000   0.
    -1.69523     0.00000   0.
    -0.70746     0.00000   0.
     0.50000     0.02500   0.
     1.50000     0.07500   0.
     2.50000     0.11000   0.
     3.50000     0.13000   0.
     4.50000     0.16000   0.
     5.50000     0.20000   0.
     6.50000     0.21000   0.
     7.50000     0.19000   0.
     8.50000     0.14500   0.
     9.50000     0.08000   0.
    10.50000     0.03500   0.
    11.50000     0.00500   0.
    12.50000    -0.03500   0.
    13.50000    -0.08500   0.
    14.50000    -0.13000   0.
    15.50000    -0.17000   0.
    16.50000    -0.17000   0.
    17.50000    -0.13000   0.
    18.50000    -0.08000   0.
    19.50000    -0.02500   0.
    20.50000    -0.03500   0.
    21.50000    -0.10000   0.
    22.50000    -0.10500   0.
    23.50000    -0.05500   0.
    24.50000     0.00000   0.
    25.50000     0.06000   0.
    26.50000     0.09000   0.
    27.50000     0.09000   0.
    28.50000     0.10500   0.
    29.50000     0.13500   0.
    30.50000     0.15500   0.
    31.50000     0.16000   0.
    32.50000     0.18500   0.
    33.50000     0.23500   0.
    34.50000     0.25000   0.
    35.50000     0.23000   0.
    36.50000     0.28500   0.
    37.49500     0.41500   0.
    38.49000     0.48000   0.
    39.49000     0.48000   0.
    40.49000     0.51500   0.
    41.49000     0.58500   0.
    42.48500     0.67500   0.
    43.48000     0.75500   0.
    44.48000     0.80500   0.
    45.48000     0.85500   0.
    46.48000     0.90500   0.
    47.48000     0.95500   0.
    48.48000     0.96000   0.
    49.48000     0.92000   0.
    50.48000     0.88000   0.
    51.48000     0.84000   0.
    52.48000     0.85000   0.
    53.48000     0.90500   0.
    54.48000     0.91000   0.
    55.48000     0.87000   0.
    56.48000     0.82500   0.
    57.48000     0.77500   0.
    58.48000     0.76500   0.
    59.48000     0.79000   0.
    60.48000     0.80000   0.
    61.48000     0.80000   0.
    62.48500     0.80500   0.
    63.49000     0.81500   0.
    64.49000     0.81500   0.
    65.49000     0.81000   0.
    66.49000     0.82000   0.
    67.49000     0.84000   0.
    68.49000     0.86000   0.
    69.49000     0.88500   0.
    70.49000     0.95000   0.
    71.48500     1.05000   0.
    72.48000     1.15000   0.
    73.48000     1.24500   0.
    74.48000     1.31500   0.
    75.47500     1.37000   0.
    76.47000     1.43000   0.
    77.47000     1.48500   0.
    78.47000     1.46000   0.
    79.47000     1.36500   0.
    80.47000     1.34500   0.
    81.47000     1.39500   0.
    82.47000     1.39500   0.
    83.47000     1.34500   0.
    84.47000     1.33500   0.
    85.47000     1.36000   0.
    86.47000     1.38500   0.
    87.47000     1.41000   0.
    88.47000     1.40500   0.
    89.47000     1.38000   0.
    90.47000     1.39500   0.
    91.47000     1.44500   0.
    92.47000     1.47500   0.
    93.47000     1.48500   0.
    94.47000     1.49500   0.
    95.47500     1.50000   0.
    96.48000     1.51000   0.
    97.48000     1.53000   0.
    98.48000     1.54000   0.
    99.48000     1.54000   0.
   100.48000     1.56000   0.
   101.48000     1.59500   0.
   102.48000     1.60500   0.
   103.48000     1.59500   0.
   104.48000     1.60500   0.
   105.48000     1.63000   0.
   106.48000     1.66000   0.
   107.48000     1.69500   0.
   108.48000     1.72000   0.
   109.48500     1.74500   0.
   110.49000     1.78500   0.
   111.49000     1.83000   0.
   112.49000     1.84500   0.
   113.49000     1.83500   0.
   114.49000     1.83500   0.
   115.49000     1.84500   0.
   116.49000     1.85500   0.
   117.49000     1.86000   0.
   118.49000     1.84500   0.
   119.49000     1.82000   0.
   120.49000     1.83500   0.
   121.49000     1.88500   0.
   122.49000     1.93500   0.
   123.49000     1.99500   0.
   124.49000     2.08500   0.
   125.48500     2.19500   0.
   126.48000     2.29500   0.
   127.68746     2.34000   0.
   128.67523     2.34000   0.
   130.05439     2.34000   0.
    -3.37000    -5.00000   0.
    -0.11000    -4.96000   0.
     3.15000    -4.87500   0.
     6.41500    -4.82500   0.
     9.68000    -4.90500   0.
    12.94000    -5.06000   0.
    16.20000    -5.12500   0.
    19.46000    -5.09500   0.
    22.72000    -5.04000   0.
    25.98000    -4.96000   0.
    29.24500    -4.88000   0.
    32.51000    -4.79500   0.
    35.77000    -4.66500   0.
    39.03000    -4.53000   0.
    42.29000    -4.34500   0.
    45.55000    -4.14000   0.
    48.81000    -4.09000   0.
    52.07000    -4.10500   0.
    55.33500    -4.14500   0.
    58.60000    -4.20000   0.
[...]
POINT_DATA      2188
CELL_DATA      4025
SCALARS Resistivity(ohm.m) double 1
LOOKUP_TABLE default
           431.56987           421.61065           439.61891           433.65452           434.21423           244.50609           433.43213           433.74769           433.69212           430.59758           366.86233           671.02391           433.61306           433.56589           438.71151           468.51929           435.31068           432.41424           363.50614           438.39444           432.89016           863.54674           433.61353           419.14459           433.05621           319.17365           456.89344           273.02665           470.41087           196.93011           232.38981           436.56504           435.85972           432.91295           335.98859           590.50079           654.30741           637.90890           226.64202           432.85308           405.12396           587.36960          8141.77229           709.77537           432.75500           433.54892           484.72117           343.97007           438.35749           372.45192           433.71908           434.13181           262.96300           223.91908           237.77678           614.78583           431.05326           616.70898           357.35729           599.54138           433.63191           432.43121           373.64403           551.69665           433.44175          3216.81792           262.52269           436.95209           675.83655           432.43760           459.33335           958.54300           357.34533           366.07122           465.81726           418.41628           435.18330           246.61755           926.32246           452.22389           711.47756           670.58731           432.42558           263.06092          1031.61415           432.48517           202.50170           433.51438           204.50838           282.77401           429.87522           434.30728           433.30254           432.73524           219.93638           458.18709           433.23151           831.29677           433.46075           448.29996           434.62905           444.48971           479.98957           493.18657           981.86234           641.53520           433.42336           434.32071           437.54372           439.43496           376.93314           436.16456           432.73806           485.06771           433.60304           871.67410          2886.76153           433.71254           433.20988           474.18133           343.07284           436.69148           434.76617           278.65284           223.04488           439.75844           669.16553           851.71493           672.18343           433.09310           635.48872           393.35291           450.97774           430.21285           227.58248           434.17833           439.84092           436.89432           449.94653           443.95493           770.00005           204.05312           299.15562           240.79313           185.23600           432.46458           305.59981           548.21112           208.14377           435.35886           580.38349           875.99137           444.39406           447.72311           434.02722           498.90520           436.43283           386.81506           903.98708           447.31695           388.96397           597.80459           433.07003           636.93283           897.23064           282.00538           435.73873           433.83910           432.89541           671.64356           732.52564           432.62632           432.47791          1175.33705           258.69804           371.52778           354.87647           396.44183           435.02238           433.10679           456.52963           433.76530           282.00335           553.45917           399.73596           896.97076           831.92752           351.98466           832.87625           852.13765           379.07802           656.84520           433.14352           453.77400           355.90375           460.64208           432.41405           432.66521           720.44980           434.28347           496.91546           198.50942           588.98576           443.03695          1074.66860           453.34283           177.10969           772.37943           441.33623           440.96115           457.47446           734.08372           706.52984           432.42125           432.91684           246.53330           446.08351           589.79128           522.74783           435.63023           488.72523           432.76938           361.38752           709.96206          1017.17161           436.22155           285.88788          1476.07474           453.79574           449.58448           437.90911           603.24150           433.28284           911.01539           462.15507           438.09954           510.26475           432.59952           432.42604           654.54013           432.93792           435.21170           480.10921           445.11183           325.01265           433.19080           462.12047           435.07697           437.81370           432.68266           380.71008           453.42946           363.34617           678.44307           660.93816           384.05893           433.06115          4522.86263           848.02938           439.23129           281.57801           642.22660           437.22167           432.42969           650.21155           432.55663           629.54817           436.05057           440.91073           459.12872           385.07186           500.35099           435.20589           699.63478           433.56670           470.97446           435.94959           563.67291           440.28156           434.24603           822.72636           433.91598           547.58874          7675.16279           451.09702           445.50528           694.74370           432.72290           432.85189           433.44262           370.08012           427.26727           821.37080           432.47384           510.49635           482.87181           459.79899           465.29443           481.49062           289.74185           285.17226           896.70292           437.42289           650.81801           422.35397           432.48554           650.30168           501.14727           381.79705           437.39733          1000.49380           497.44231           432.65660           572.99074           461.63182           424.82464           495.00271           220.74949           436.83449           867.49466           229.57400           432.48971           432.70301           332.43016           434.35740           436.49970           249.78987           433.28116           451.35814           433.22536           252.37711           687.10503           283.42225           911.61868           194.20821           433.40959           447.58959           432.45280           432.92370           432.72603           823.82917           432.47386           432.49787           435.32333           759.40162           432.50073           351.45777           175.59519           331.56958           433.27472           262.23208           441.56079           432.66975           455.51312           437.22726           433.29943           432.60815           432.57241           950.39921           443.24081           245.82522           443.37563           475.37169           433.25788           513.69037           471.78716           435.42516           392.68386           433.84951           475.24259           777.50157           403.19348           295.86489           609.77193           947.14654           230.70225           433.15471           280.80017           444.96973           606.51312           646.32696           432.82882           429.75112           470.36127           433.09515           262.07646           690.36682           432.65851           444.59933         12957.56236           822.60515           287.26169           433.38632           629.69753           376.47586           432.42653           323.54258           445.87464           623.99633           432.94680           370.16603           449.92360           174.90668           250.43834           654.50129           473.30600           433.37650           202.20723           433.15892           433.35140           511.11260           433.27949           169.85041           433.65297           266.62735           432.44218           723.68614           491.52263           439.43936           533.87139           434.55666           433.95302           670.30543           254.02747           434.53095           444.03088           683.04279           466.00458           417.74668           722.45553           432.51740           399.71725           485.49025           469.68945           433.69742           726.57346           433.65908          1136.10705           260.60054           585.45532           510.42487           433.91547           410.13626           447.69765           434.73148           455.98155           448.18564           414.84406           405.23853           434.69624           440.07704           277.55595           191.79641           433.53217           437.92804           432.85485           196.51325           969.24732           434.51480           625.27152           563.76920           462.05934           433.05037           572.83507           665.17835           179.53170           307.61899           433.22449           174.04069           322.54267           443.36367           212.17954           432.69802           371.97191           506.88613           739.42361           442.48080           541.10209           430.12481           435.51227           751.30468           586.74368           235.91898           434.78407           214.29145           533.42677           432.42507           433.73703           524.67657          1255.72561           722.87646           432.95593           432.71647           454.09750           359.86998           699.93495           644.59769           840.30390           432.79023           432.38053           434.38932           388.63798           434.72799           757.36001           432.41701           425.45101           433.54301           442.73506           432.53649           433.40910           433.20878           432.38460           432.53810           432.56686           432.42009           259.05954           372.84796           459.18556           173.96353           465.02969           448.17673           376.28376           432.49364           432.41530           454.32546           252.83827           432.44653           433.12669           325.79419           435.53792           432.59826           405.24814          1143.73621           461.25536           432.31873           676.29099           468.23396           434.90068           432.63556           432.51963           338.08123           205.43612           311.08815           288.28794           323.04418           457.79472           436.06141           433.73260           448.09869           207.66297           369.37827           445.37522           568.61258           434.30916           552.34339           432.41999           443.96823           206.23481           671.02902           163.06962           435.45249           434.71160           199.07229           435.81616           339.30105           439.48961           881.50105          1207.84682           414.31861           433.20028           432.50340           221.66532           432.75661           469.63791           258.89086           453.80302           434.53413           307.84204           433.18119           432.81256           545.45282           442.04675           458.06690           432.41599           432.40576           484.11504           483.55368           432.45131           432.46217           432.42661           645.29392           794.94622          1208.54297          1055.59893          1052.62077          1121.04855           434.15976           417.82621           434.13509           432.44535           433.37211           448.04297           432.86958           432.54376           432.92725           413.39581           223.18630           428.35299           432.51999           432.41341           432.31538           367.80811           432.32888           420.85327           976.35061           432.46481           433.40391           433.39956           433.98530           621.44328           442.18060           258.41985           432.64994           432.34527           433.37638           499.11258          1273.93200           864.65233           432.95226           904.61103           309.50409           432.35746           694.17410           864.45757           477.47857           432.38224           432.42482           433.04127           433.76060           432.52566           432.56260           432.39367           306.08190           293.54635           435.60196           628.39624           346.19835           299.29982           653.69575          2441.23011           432.33006           307.89011           444.71448           448.10294           774.34788           432.79451           436.18815           272.84225           432.71258           282.02441           358.51932           623.60419           305.61606           481.71692           432.55273           465.08795           440.78766           432.40110           432.41763           272.88954           420.17422           458.65601           432.41268           440.59618           432.46093           301.36485           454.29406           432.43980           432.36477           432.41831           673.94682           437.75462           524.88228           433.21979           580.45418           615.47056           509.35278           540.02287           432.39410           721.95255           433.09103           800.60180           679.29560           454.32260           436.11386           432.66420           432.76818           432.34200           432.73007           432.96759           605.66335           679.35297           958.96206           848.28620           164.44355           433.76727           432.52984           432.66169           432.63970           232.16199           433.02048           350.96506           438.64461           433.02163           338.25451           432.58552           192.04288           710.01596           621.45724           502.39079           410.04665           425.43414           760.07380           433.57092           165.86004           432.63720           432.41505           432.42182           464.58348           433.03871           432.36821           433.21152           443.10276           435.47578           584.69908          3472.25574           426.90065           432.59120           437.06983           433.48244           722.43365           435.86272           454.18365           394.02995           432.44193           613.48992           438.75307           433.54600           448.65392           427.08034           433.01330           478.55629           856.96887           432.93184           428.62234           443.63182           437.06624           272.00169           432.39135           432.09389           826.15533           432.81991           436.62603           433.27995           436.93422           438.02743           423.27516           433.39541           583.31815           435.33124           434.25574           805.88536         64626.33164           433.10474           157.66291           436.60310           736.13867           386.75550           811.60101           745.05217           528.03918           381.07205           434.40496           504.16794           432.45695           432.52543           240.06642           433.04951           293.78410           410.02950           347.28543           433.58023           472.71402           432.63946           559.13435           474.96163           432.85708           286.30006           300.19684           527.47255           434.26750           441.76009           361.00516           433.34490           673.64728           498.20365           464.53541           430.75662           435.21403           279.96826           432.64083           322.91881           449.50604           440.41896           432.85539           501.22019           432.50970           442.92480           433.51331           432.54776           290.46527           432.49578           351.00736           300.82438           496.41259           702.39253           432.44414           434.00917           866.13026           448.01357           432.72193           400.30980           437.59601           295.24203           432.99419           387.91210           278.38217           432.73862           836.14856           432.52438           195.09737           720.05561           439.60485           432.77942           436.14180           264.60542           433.93128           433.06899           252.65127           432.68376           305.47342           449.82339           695.47866           432.43496           432.63171           433.67974           977.13803           445.81875           755.49050           499.64799           378.70321           433.77867           475.23493           358.39502           458.18411           433.49110           730.40695           433.86900           447.89199           647.12406           300.99570           539.38700           432.33519           432.46682           433.01165           440.42018           490.75901           436.39270           846.24765           439.18495           435.51297           432.46182           343.10315           317.50067           432.38905           435.85712           948.43108           432.42178           441.60177           434.66876           432.51172           432.43842           436.17412           441.67718           715.92834           364.58193           434.51394           472.44438           284.85413           291.11659           502.68319           432.70903           427.15901           665.35506           433.47161           626.05341           432.38027           450.53358           432.50796           433.75532          1207.72888           432.34299           560.71619           424.34396           432.56003           254.39791           432.98382           432.79327           544.81454           433.09682           433.46035           433.33507           440.22249           489.25219           886.82334           432.57882           666.56124           439.66516          1210.51380          1175.42799          1131.56893           512.22206           807.14515           441.40262           432.34973           433.17252           612.44691           433.00045           517.27064           433.96575           432.58123           436.38648           515.11609           426.05696           432.80316           432.55604           317.99228           433.44735          1025.02558           438.80299           432.86890           432.69551           432.97745           433.40031           435.66784           432.49123           547.30557           659.44346           432.70094           432.38401           648.43070           433.03512           786.91369           489.49211           432.38921           432.40658           431.52605           432.77013           208.46560           391.95545           433.10508           444.46210           433.91282           673.09850           429.80534           433.89041           433.11311           437.11674           484.52048           432.39516           469.54444           433.76680           915.06080           432.56139           735.63771           232.68068           225.58211           227.86506           249.88666           432.42618           643.18846           343.97073           635.84761           432.41314           251.53996  