# vtk DataFile Version 3.0
Output from R2
ASCII
DATASET UNSTRUCTURED_GRID
POINTS       2188 double
    -5.00000     0.00000   0.
     0.00000     0.00000   0.
     1.00000     0.05000   0.
     2.00000     0.10000   0.
     3.00000     0.12000   0.
     4.00000     0.14000   0.
     5.00000     0.18000   0.
     6.00000     0.22000   0.
     7.00000     0.20000   0.
     8.00000     0.18000   0.
     9.00000     0.11000   0.
    10.00000     0.05000   0.
    11.00000     0.02000   0.
    12.00000    -0.01000   0.
    13.00000    -0.06000   0.
    14.00000    -0.11000   0.
    15.00000    -0.15000   0.
    16.00000    -0.19000   0.
    17.00000    -0.15000   0.
    18.00000    -0.11000   0.
    19.00000    -0.05000   0.
    20.00000     0.00000   0.
    21.00000    -0.07000   0.
    22.00000    -0.13000   0.
    23.00000    -0.08000   0.
    24.00000    -0.03000   0.
    25.00000     0.03000   0.
    26.00000     0.09000   0.
    27.00000     0.09000   0.
    28.00000     0.09000   0.
    29.00000     0.12000   0.
    30.00000     0.15000   0.
    31.00000     0.16000   0.
    32.00000     0.16000   0.
    33.00000     0.21000   0.
    34.00000     0.26000   0.
    35.00000     0.24000   0.
    36.00000     0.22000   0.
    37.00000     0.35000   0.
    37.99000     0.48000   0.
    38.99000     0.48000   0.
    39.99000     0.48000   0.
    40.99000     0.55000   0.
    41.99000     0.62000   0.
    42.98000     0.73000   0.
    43.98000     0.78000   0.
    44.98000     0.83000   0.
    45.98000     0.88000   0.
    46.98000     0.93000   0.
    47.98000     0.98000   0.
    48.98000     0.94000   0.
    49.98000     0.90000   0.
    50.98000     0.86000   0.
    51.98000     0.82000   0.
    52.98000     0.88000   0.
    53.98000     0.93000   0.
    54.98000     0.89000   0.
    55.98000     0.85000   0.
    56.98000     0.80000   0.
    57.98000     0.75000   0.
    58.98000     0.78000   0.
    59.98000     0.80000   0.
    60.98000     0.80000   0.
    61.98000     0.80000   0.
    62.99000     0.81000   0.
    63.99000     0.82000   0.
    64.99000     0.81000   0.
    65.99000     0.81000   0.
    66.99000     0.83000   0.
    67.99000     0.85000   0.
    68.99000     0.87000   0.
    69.99000     0.90000   0.
    70.99000     1.00000   0.
    71.98000     1.10000   0.
    72.98000     1.20000   0.
    73.98000     1.29000   0.
    74.98000     1.34000   0.
    75.97000     1.40000   0.
    76.97000     1.46000   0.
    77.97000     1.51000   0.
    78.97000     1.41000   0.
    79.97000     1.32000   0.
    80.97000     1.37000   0.
    81.97000     1.42000   0.
    82.97000     1.37000   0.
    83.97000     1.32000   0.
    84.97000     1.35000   0.
    85.97000     1.37000   0.
    86.97000     1.40000   0.
    87.97000     1.42000   0.
    88.97000     1.39000   0.
    89.97000     1.37000   0.
    90.97000     1.42000   0.
    91.97000     1.47000   0.
    92.97000     1.48000   0.
    93.97000     1.49000   0.
    94.97000     1.50000   0.
    95.98000     1.50000   0.
    96.98000     1.52000   0.
    97.98000     1.54000   0.
    98.98000     1.54000   0.
    99.98000     1.54000   0.
   100.98000     1.58000   0.
   101.98000     1.61000   0.
   102.98000     1.60000   0.
   103.98000     1.59000   0.
   104.98000     1.62000   0.
   105.98000     1.64000   0.
   106.98000     1.68000   0.
   107.98000     1.71000   0.
   108.98000     1.73000   0.
   109.99000     1.76000   0.
   110.99000     1.81000   0.
   111.99000     1.85000   0.
   112.99000     1.84000   0.
   113.99000     1.83000   0.
   114.99000     1.84000   0.
   115.99000     1.85000   0.
   116.99000     1.86000   0.
   117.99000     1.86000   0.
   118.99000     1.83000   0.
   119.99000     1.81000   0.
   120.99000     1.86000   0.
   121.99000     1.91000   0.
   122.99000     1.96000   0.
   123.99000     2.03000   0.
   124.99000     2.14000   0.
   125.98000     2.25000   0.
   126.98000     2.34000   0.
   131.98000     2.34000   0.
    -5.00000    -5.00000   0.
    -1.74000    -5.00000   0.
     1.52000    -4.92000   0.
     4.78000    -4.83000   0.
     8.05000    -4.82000   0.
    11.31000    -4.99000   0.
    14.57000    -5.13000   0.
    17.83000    -5.12000   0.
    21.09000    -5.07000   0.
    24.35000    -5.01000   0.
    27.61000    -4.91000   0.
    30.88000    -4.85000   0.
    34.14000    -4.74000   0.
    37.40000    -4.59000   0.
    40.66000    -4.47000   0.
    43.92000    -4.22000   0.
    47.18000    -4.06000   0.
    50.44000    -4.12000   0.
    53.70000    -4.09000   0.
    56.97000    -4.20000   0.
    60.23000    -4.20000   0.
    63.49000    -4.18000   0.
    66.75000    -4.17000   0.
    70.01000    -4.10000   0.
    73.27000    -3.77000   0.
    76.53000    -3.57000   0.
    79.79000    -3.66000   0.
    83.06000    -3.64000   0.
    86.32000    -3.62000   0.
    89.58000    -3.62000   0.
    92.84000    -3.52000   0.
    96.10000    -3.50000   0.
    99.36000    -3.46000   0.
   102.62000    -3.40000   0.
   105.89000    -3.36000   0.
   109.15000    -3.26000   0.
   112.41000    -3.16000   0.
   115.67000    -3.15000   0.
   118.93000    -3.17000   0.
   122.19000    -3.08000   0.
   125.45000    -2.81000   0.
   128.71000    -2.66000   0.
   131.98000    -2.66000   0.
  -639.88000     0.00000   0.
  -639.88000  -385.93000   0.
   766.86000     2.34000   0.
   766.86000  -385.93000   0.
    -3.07439     0.00000   0.
    -1.69523     0.00000   0.
    -0.70746     0.00000   0.
     0.50000     0.02500   0.
     1.50000     0.07500   0.
     2.50000     0.11000   0.
     3.50000     0.13000   0.
     4.50000     0.16000   0.
     5.50000     0.20000   0.
     6.50000     0.21000   0.
     7.50000     0.19000   0.
     8.50000     0.14500   0.
     9.50000     0.08000   0.
    10.50000     0.03500   0.
    11.50000     0.00500   0.
    12.50000    -0.03500   0.
    13.50000    -0.08500   0.
    14.50000    -0.13000   0.
    15.50000    -0.17000   0.
    16.50000    -0.17000   0.
    17.50000    -0.13000   0.
    18.50000    -0.08000   0.
    19.50000    -0.02500   0.
    20.50000    -0.03500   0.
    21.50000    -0.10000   0.
    22.50000    -0.10500   0.
    23.50000    -0.05500   0.
    24.50000     0.00000   0.
    25.50000     0.06000   0.
    26.50000     0.09000   0.
    27.50000     0.09000   0.
    28.50000     0.10500   0.
    29.50000     0.13500   0.
    30.50000     0.15500   0.
    31.50000     0.16000   0.
    32.50000     0.18500   0.
    33.50000     0.23500   0.
    34.50000     0.25000   0.
    35.50000     0.23000   0.
    36.50000     0.28500   0.
    37.49500     0.41500   0.
    38.49000     0.48000   0.
    39.49000     0.48000   0.
    40.49000     0.51500   0.
    41.49000     0.58500   0.
    42.48500     0.67500   0.
    43.48000     0.75500   0.
    44.48000     0.80500   0.
    45.48000     0.85500   0.
    46.48000     0.90500   0.
    47.48000     0.95500   0.
    48.48000     0.96000   0.
    49.48000     0.92000   0.
    50.48000     0.88000   0.
    51.48000     0.84000   0.
    52.48000     0.85000   0.
    53.48000     0.90500   0.
    54.48000     0.91000   0.
    55.48000     0.87000   0.
    56.48000     0.82500   0.
    57.48000     0.77500   0.
    58.48000     0.76500   0.
    59.48000     0.79000   0.
    60.48000     0.80000   0.
    61.48000     0.80000   0.
    62.48500     0.80500   0.
    63.49000     0.81500   0.
    64.49000     0.81500   0.
    65.49000     0.81000   0.
    66.49000     0.82000   0.
    67.49000     0.84000   0.
    68.49000     0.86000   0.
    69.49000     0.88500   0.
    70.49000     0.95000   0.
    71.48500     1.05000   0.
    72.48000     1.15000   0.
    73.48000     1.24500   0.
    74.48000     1.31500   0.
    75.47500     1.37000   0.
    76.47000     1.43000   0.
    77.47000     1.48500   0.
    78.47000     1.46000   0.
    79.47000     1.36500   0.
    80.47000     1.34500   0.
    81.47000     1.39500   0.
    82.47000     1.39500   0.
    83.47000     1.34500   0.
    84.47000     1.33500   0.
    85.47000     1.36000   0.
    86.47000     1.38500   0.
    87.47000     1.41000   0.
    88.47000     1.40500   0.
    89.47000     1.38000   0.
    90.47000     1.39500   0.
    91.47000     1.44500   0.
    92.47000     1.47500   0.
    93.47000     1.48500   0.
    94.47000     1.49500   0.
    95.47500     1.50000   0.
    96.48000     1.51000   0.
    97.48000     1.53000   0.
    98.48000     1.54000   0.
    99.48000     1.54000   0.
   100.48000     1.56000   0.
   101.48000     1.59500   0.
   102.48000     1.60500   0.
   103.48000     1.59500   0.
   104.48000     1.60500   0.
   105.48000     1.63000   0.
   106.48000     1.66000   0.
   107.48000     1.69500   0.
   108.48000     1.72000   0.
   109.48500     1.74500   0.
   110.49000     1.78500   0.
   111.49000     1.83000   0.
   112.49000     1.84500   0.
   113.49000     1.83500   0.
   114.49000     1.83500   0.
   115.49000     1.84500   0.
   116.49000     1.85500   0.
   117.49000     1.86000   0.
   118.49000     1.84500   0.
   119.49000     1.82000   0.
   120.49000     1.83500   0.
   121.49000     1.88500   0.
   122.49000     1.93500   0.
   123.49000     1.99500   0.
   124.49000     2.08500   0.
   125.48500     2.19500   0.
   126.48000     2.29500   0.
   127.68746     2.34000   0.
   128.67523     2.34000   0.
   130.05439     2.34000   0.
    -3.37000    -5.00000   0.
    -0.11000    -4.96000   0.
     3.15000    -4.87500   0.
     6.41500    -4.82500   0.
     9.68000    -4.90500   0.
    12.94000    -5.06000   0.
    16.20000    -5.12500   0.
    19.46000    -5.09500   0.
    22.72000    -5.04000   0.
    25.98000    -4.96000   0.
    29.24500    -4.88000   0.
    32.51000    -4.79500   0.
    35.77000    -4.66500   0.
    39.03000    -4.53000   0.
    42.29000    -4.34500   0.
    45.55000    -4.14000   0.
    48.81000    -4.09000   0.
    52.07000    -4.10500   0.
    55.33500    -4.14500   0.
    58.60000    -4.20000   0.
[...]
POINT_DATA      2188
CELL_DATA      4025
SCALARS Resistivity(ohm.m) double 1
LOOKUP_TABLE default
           291.15313           297.10751           209.85860           242.91609           227.13292           602.29814           255.46945           255.23588           273.33065           291.80957           286.58544           203.88878           235.83970           277.61745           276.02164           206.91688           245.75740           273.29265           288.57477           282.46172           277.02440           337.10145           288.24479           287.36035           256.04110           238.23704           205.56397           285.93992           205.00550           139.25837           582.08600           220.42779           248.19459           227.76207           241.61079           226.09362           203.32653           203.37409           142.66823           276.82458           282.67908           204.94495          2167.40911           421.34947           263.85164           238.43361           241.07803           237.03306           224.21393           289.39132           275.84493           288.50865           434.02077           125.10035           241.53772           204.44566           289.29505           243.45186           298.14551           442.76128           250.67797           269.65018           299.10684           560.62560           272.90025          1012.75518           127.22199           208.77642           226.00221           273.37254           205.77129           405.79756           265.66981           291.49154           519.40539           291.23050           334.22753           278.16184           437.47840           205.00649           526.04321           373.20161           270.10375           145.01679           331.47971           273.42144           170.28631           287.02319           127.87857           270.39957           282.08423           262.16287           218.72014           275.75918           158.80499           218.03179           253.80057           523.48540           243.22368           341.67403           247.01773           282.29760           222.57491           224.24351           214.50463           212.23888           218.18840           229.17966           220.77548           283.93312           290.03143           209.55989           262.50478           426.52753           247.86890           382.18769          1027.90782           285.68931           257.21056           335.39858           294.51020           229.43574           212.23363           104.78259           167.87005           212.63925           218.87027           308.59322           237.84386           220.37997           202.64926           230.17811           235.54433           291.66805           151.89684           239.91650           238.59451           237.02478           247.53519           241.51812           293.39074           119.26146           206.48930           234.88932           208.31870           273.19145           456.02439           204.29216           197.40731           224.41967           203.52920           400.20500           273.54937           282.95524           215.20292           318.29669           232.32391           254.74110           385.19715           205.33075           222.82650           204.81938           228.24311           329.73752           360.82161           117.98344           243.32684           245.28529           230.15586           211.71676           270.38548           272.34330           268.74227           309.73807           649.15963           288.41698           206.16312           280.78579           236.51698           234.54753           221.50194           240.49567           211.65454           458.71805           293.44740           339.23016           354.67328           281.18738           327.64912           392.51669           241.94284           216.15864           220.83612           206.98527           275.43625           205.92651           272.89198           273.69657           338.82067           244.49182           341.66949           422.56380           413.09285           275.15007           318.49228           296.81265           239.27495           375.58281           234.76785           232.51350           205.28407           369.62638           422.97511           224.46656           258.46430           165.86922           237.41887           205.67796           183.53371           238.44191           204.59304           222.70668           280.80669           215.43360           321.48880           276.24620           532.17125           553.90575           208.73363           288.40478           210.16388           268.69766           230.18874           476.99016           256.23230           227.12629           260.82065           264.76316           270.93504           229.11255           222.27632           240.98646           219.08871           264.19982           279.32162           233.14478           205.53522           260.73034           239.43779           226.67681           256.82458           231.08820           300.21436           215.49143           323.36967           344.09246           276.38955          1420.59050           212.43026           230.81056           232.37259           392.74393           275.25409           224.93463           268.77350           265.60546           209.95257           213.05269           241.34894           208.35047           248.45269           227.01125           211.43390           343.55737           229.43532           300.31386           210.61510           203.28530           274.47053           214.16610           289.83786           262.56225           334.94023          2401.31270           252.56774           245.33656           372.72191           274.96043           231.46427           220.14077           290.90786           289.44803           337.36088           268.22976           228.57590           235.38747           300.66386           251.88461           306.44999           273.13050           172.29899           345.39473           234.02026           406.90656           460.55340           226.19926           413.51522           305.05122           290.42483           249.87354           371.36776           215.78110           263.59640           204.80926           297.52415           288.55898           228.07745           148.64397           247.28776           282.46517           339.70408           226.78117           223.31387           224.50343           237.44686           214.58664           162.00198           281.51643           205.13827           220.50018           167.08248           287.29485           106.44651           387.11708           140.62128           248.15839           255.62318           223.25858           223.08055           228.48105           458.32544           274.12821           223.07699           233.93951           434.39848           274.27130           222.33487           227.28657           529.14925           221.40400           201.53633           208.87106           227.67641           294.19202           223.61286           280.53255           223.48154           274.96650           420.43168           268.61486           226.77533           291.41676           289.29865           273.55069           326.27207           261.43743           275.49969           288.73061           226.69292           206.45374           359.99660           595.38240           166.16396           203.01334           326.05519           166.18024           288.17887           288.49828           368.53675           298.14506           257.55413           229.13929           271.63751           232.88118           219.67981           248.61137           221.90824           288.50981           208.50058          2630.90946           341.42434           278.16545           221.21898           421.64368           234.96807           271.32195           412.94941           206.25852           289.50725           275.72071           290.45270           219.18402           214.50537           215.21280           245.96437           250.77118           240.96287           643.27357           280.67602           238.69554           405.60727           250.71630           240.87718           284.98695           120.23626           268.45948           337.36223           475.55082           287.61533           204.28653           224.88833           251.34951           430.97562           171.76035           260.62659           226.28219           286.17108           205.18147           318.29166           377.33057           226.27781           293.41760           302.11802           228.52748           282.04521           219.42857           284.00407           366.92684           153.40332           340.77085           372.55802           258.14520           294.82862           217.98845           232.51363           257.54835           210.24214           285.40655           294.23071           213.46072           221.74396           348.40654           180.54997           284.61745           214.18886           226.82388           535.26600           448.51870           242.06432           202.54205           377.70023           245.90759           273.25206           232.35010           287.28239           270.71544           280.82594           219.34967           604.71991           276.50627           458.59662           235.26453           229.37860           379.90519           316.03184           207.87933           287.19060           395.07568           289.27287           249.99761           316.13620           243.71816           216.78616           276.18553           613.80223           204.38849           290.14011           287.14511           285.04806           579.73040           311.29449           233.00817           261.71508           388.59195           294.41051           380.50906           356.34728           457.93673           276.45255           223.57257           249.32941           257.43124           251.44959           214.56216           273.85047           276.59822           283.35826           216.63740           223.46199           245.64655           276.54258           273.68034           274.41261           272.23329           270.43221           322.95738           286.72789           292.79575           661.05097           215.02136           292.61067           290.82399           266.95376           223.44747           289.86147           241.87781           273.94113           229.60759           292.91256           221.70197           275.20399           294.11885           395.44482           226.32289           224.32484           414.59029           205.86174           230.02667           228.62148           266.02933           315.88736           127.64937           157.57710           316.28683           144.94026           283.14459           225.28534           215.83925           207.34469           143.70301           181.51194           267.43624           378.87697           275.54781           499.42943           223.57264           252.43202           286.15308           537.72045           252.15569           287.59436           281.61938           220.49349           281.76646           293.04108           228.16345           213.32200           263.21546           295.15706           236.63985           273.34735           272.14579           230.40455           390.64460           216.76965           242.48592           279.77198           226.71021           222.22889           223.57654           337.20672           284.11404           273.46809           225.11035           272.88970           219.20335           212.33142           273.67496           226.47621           269.07203           535.61888           214.10773           262.62928           310.87363           298.18039           278.14940           215.73490           295.23989           233.43615           268.78503           287.83280           180.29301           275.72738           274.68824           273.72643           371.68630           181.47767           285.80150           224.27568           272.54605           224.54330           211.39207           224.12120           295.20032           288.42250           267.68710           277.96781           252.90140           253.54768           361.71016           258.77902           166.20969           263.01391           223.76242           234.11677           222.58177           550.45058           418.08414           277.70569           270.23890           302.31877           224.77280           495.56563           260.30379           267.43595           273.59195           272.40983           230.79871           280.69598           274.49904           222.83781           273.18485           153.32056           238.73344           216.04242           248.61008           271.22312           353.94246           385.51579           954.34552           224.77032           238.04327           210.62176           262.42608           241.90168           222.02319           252.83210           191.09223           222.30816           253.74286           241.89624           237.45285           494.52104           302.56314           265.16822           288.60652           207.51087           225.50133           225.99490           231.32430           294.47151           207.33703           269.98134           264.10058           224.26426           329.84143           239.49611           226.17772           225.21637           269.64692           374.88878           208.73630           240.02095           281.32646           230.58396           283.49025           405.77249           343.37785           223.79254           223.30510           221.55385           415.24577           219.69323           275.87810           283.09815           271.66639           226.46589           224.99369           276.24936           220.89336           223.06678           305.70661           433.68634           343.07871           254.92980           286.66222           227.31716           274.36060           275.55318           242.40080           277.93371           251.24045           267.41458           219.96301           284.45641           227.85405           232.68542           359.93497           274.44663           461.21959           294.61582           294.64211           234.05152           285.39705           237.92749           222.60478           271.04986           272.15622           291.31364           279.32126           225.38371           217.64099           229.43610           289.51260           215.56734          1133.75727           291.67012           224.01945           251.49167           216.28207           208.59011           228.39367           205.89774           292.61301           272.35925           328.05974           418.03554           216.70876           260.18315           389.59028           221.78658           183.40261           321.71826           278.03133           293.70799           204.72446           283.42426           199.11201           225.05853           291.00665           341.16674           277.00749           269.35381           288.02994           242.32627           206.92990           294.91211           283.12852           389.63606           210.15696           213.13955           390.10796          6336.98386           279.92844           659.23114           211.14128           218.46343           422.98235           331.01264           452.28715           420.38976           296.05475           253.24185           204.48941           272.07249           273.78674           199.14518           219.47249           199.69286           382.21059           209.73354           227.31758           247.41298           222.80029           211.00768           207.43782           221.66439           416.59338           267.93225           322.63960           272.06369           212.20827           203.95137           269.94867           405.20166           213.36713           209.91091           292.46271           270.75380           223.46649           270.06508           301.44900           228.59284           219.00241           289.54930           213.20179           224.81128           248.61546           286.31260           270.95937           155.57690           271.66007           267.02635           144.38769           286.04988           268.30109           272.07547           235.69634           211.06508           223.21593           223.63930           267.59283           244.93582           294.92256           270.87859           291.65885           213.55546           222.58562           260.57356           274.29619           170.67285           214.19538           206.53061           276.59412           282.21772           403.76060           276.18901           218.86515           376.81917           275.84782           339.26651           281.92750           413.37734           271.26478           224.61784           215.59330           253.64237           204.55801           232.08965           245.57988           264.84286           232.14849           300.87546           272.04893           289.70324           283.80822           303.05603           214.77543           204.59891           380.34409           270.25704           208.55035           224.31127           271.67074           220.48440           205.60809           289.23126           208.48404           389.50291           206.25578           283.05650           225.01062           255.41671           267.78377           225.24591           209.33533           338.28300           271.39942           255.10048           211.65442           272.67680           271.11599           255.28089           225.10670           386.09334           243.50653           212.37314           299.99042           252.02851           216.87355           302.23814           266.45122           294.16564           270.02910           282.56094           205.49478           224.42542           448.81136           271.04911           264.14636           252.40275           223.83367           257.91088           292.53618           224.88994           250.21357           278.63727           224.29900           465.87797           222.36279           222.68969           217.01560           260.72068           261.10790           362.02004           270.24882           205.04762           289.85517           265.84499           286.16583           300.59501           207.29417           209.05980           205.97360           223.86899           223.36160           245.95753           222.97972           216.69007           222.04113           274.80153           289.99892           382.68092           281.50638           260.20204           225.51748           209.67044           264.66039           284.62133           264.94958           277.39365           225.44944           223.90702           261.04579           218.01327           273.94791           247.80762           296.75896           224.68583           225.74530           380.21395           220.75613           449.14651           207.70954           225.58377           270.40626           291.67914           275.10003           401.43339           521.24061           288.78002           218.25220           284.83061           315.59522           293.08737           272.09318           270.02311           267.64981           275.23462           273.46478           208.91623           283.03682           264.14301           290.23284           207.72512           135.90463           558.23559           228.73373           151.20409           272.12409           215.86995           473.51724           238.92734           270.55086           374.35090  