# vtk DataFile Version 3.0
Output from R2
ASCII
DATASET UNSTRUCTURED_GRID
POINTS       2188 double
    -5.00000     0.00000   0.
     0.00000     0.00000   0.
     1.00000     0.05000   0.
     2.00000     0.10000   0.
     3.00000     0.12000   0.
     4.00000     0.14000   0.
     5.00000     0.18000   0.
     6.00000     0.22000   0.
     7.00000     0.20000   0.
     8.00000     0.18000   0.
     9.00000     0.11000   0.
    10.00000     0.05000   0.
    11.00000     0.02000   0.
    12.00000    -0.01000   0.
    13.00000    -0.06000   0.
    14.00000    -0.11000   0.
    15.00000    -0.15000   0.
    16.00000    -0.19000   0.
    17.00000    -0.15000   0.
    18.00000    -0.11000   0.
    19.00000    -0.05000   0.
    20.00000     0.00000   0.
    21.00000    -0.07000   0.
    22.00000    -0.13000   0.
    23.00000    -0.08000   0.
    24.00000    -0.03000   0.
    25.00000     0.03000   0.
    26.00000     0.09000   0.
    27.00000     0.09000   0.
    28.00000     0.09000   0.
    29.00000     0.12000   0.
    30.00000     0.15000   0.
    31.00000     0.16000   0.
    32.00000     0.16000   0.
    33.00000     0.21000   0.
    34.00000     0.26000   0.
    35.00000     0.24000   0.
    36.00000     0.22000   0.
    37.00000     0.35000   0.
    37.99000     0.48000   0.
    38.99000     0.48000   0.
    39.99000     0.48000   0.
    40.99000     0.55000   0.
    41.99000     0.62000   0.
    42.98000     0.73000   0.
    43.98000     0.78000   0.
    44.98000     0.83000   0.
    45.98000     0.88000   0.
    46.98000     0.93000   0.
    47.98000     0.98000   0.
    48.98000     0.94000   0.
    49.98000     0.90000   0.
    50.98000     0.86000   0.
    51.98000     0.82000   0.
    52.98000     0.88000   0.
    53.98000     0.93000   0.
    54.98000     0.89000   0.
    55.98000     0.85000   0.
    56.98000     0.80000   0.
    57.98000     0.75000   0.
    58.98000     0.78000   0.
    59.98000     0.80000   0.
    60.98000     0.80000   0.
    61.98000     0.80000   0.
    62.99000     0.81000   0.
    63.99000     0.82000   0.
    64.99000     0.81000   0.
    65.99000     0.81000   0.
    66.99000     0.83000   0.
    67.99000     0.85000   0.
    68.99000     0.87000   0.
    69.99000     0.90000   0.
    70.99000     1.00000   0.
    71.98000     1.10000   0.
    72.98000     1.20000   0.
    73.98000     1.29000   0.
    74.98000     1.34000   0.
    75.97000     1.40000   0.
    76.97000     1.46000   0.
    77.97000     1.51000   0.
    78.97000     1.41000   0.
    79.97000     1.32000   0.
    80.97000     1.37000   0.
    81.97000     1.42000   0.
    82.97000     1.37000   0.
    83.97000     1.32000   0.
    84.97000     1.35000   0.
    85.97000     1.37000   0.
    86.97000     1.40000   0.
    87.97000     1.42000   0.
    88.97000     1.39000   0.
    89.97000     1.37000   0.
    90.97000     1.42000   0.
    91.97000     1.47000   0.
    92.97000     1.48000   0.
    93.97000     1.49000   0.
    94.97000     1.50000   0.
    95.98000     1.50000   0.
    96.98000     1.52000   0.
    97.98000     1.54000   0.
    98.98000     1.54000   0.
    99.98000     1.54000   0.
   100.98000     1.58000   0.
   101.98000     1.61000   0.
   102.98000     1.60000   0.
   103.98000     1.59000   0.
   104.98000     1.62000   0.
   105.98000     1.64000   0.
   106.98000     1.68000   0.
   107.98000     1.71000   0.
   108.98000     1.73000   0.
   109.99000     1.76000   0.
   110.99000     1.81000   0.
   111.99000     1.85000   0.
   112.99000     1.84000   0.
   113.99000     1.83000   0.
   114.99000     1.84000   0.
   115.99000     1.85000   0.
   116.99000     1.86000   0.
   117.99000     1.86000   0.
   118.99000     1.83000   0.
   119.99000     1.81000   0.
   120.99000     1.86000   0.
   121.99000     1.91000   0.
   122.99000     1.96000   0.
   123.99000     2.03000   0.
   124.99000     2.14000   0.
   125.98000     2.25000   0.
   126.98000     2.34000   0.
   131.98000     2.34000   0.
    -5.00000    -5.00000   0.
    -1.74000    -5.00000   0.
     1.52000    -4.92000   0.
     4.78000    -4.83000   0.
     8.05000    -4.82000   0.
    11.31000    -4.99000   0.
    14.57000    -5.13000   0.
    17.83000    -5.12000   0.
    21.09000    -5.07000   0.
    24.35000    -5.01000   0.
    27.61000    -4.91000   0.
    30.88000    -4.85000   0.
    34.14000    -4.74000   0.
    37.40000    -4.59000   0.
    40.66000    -4.47000   0.
    43.92000    -4.22000   0.
    47.18000    -4.06000   0.
    50.44000    -4.12000   0.
    53.70000    -4.09000   0.
    56.97000    -4.20000   0.
    60.23000    -4.20000   0.
    63.49000    -4.18000   0.
    66.75000    -4.17000   0.
    70.01000    -4.10000   0.
    73.27000    -3.77000   0.
    76.53000    -3.57000   0.
    79.79000    -3.66000   0.
    83.06000    -3.64000   0.
    86.32000    -3.62000   0.
    89.58000    -3.62000   0.
    92.84000    -3.52000   0.
    96.10000    -3.50000   0.
    99.36000    -3.46000   0.
   102.62000    -3.40000   0.
   105.89000    -3.36000   0.
   109.15000    -3.26000   0.
   112.41000    -3.16000   0.
   115.67000    -3.15000   0.
   118.93000    -3.17000   0.
   122.19000    -3.08000   0.
   125.45000    -2.81000   0.
   128.71000    -2.66000   0.
   131.98000    -2.66000   0.
  -639.88000     0.00000   0.
  -639.88000  -385.93000   0.
   766.86000     2.34000   0.
   766.86000  -385.93000   0.
    -3.07439     0.00000   0.
    -1.69523     0.00000   0.
    -0.70746     0.00000   0.
     0.50000     0.02500   0.
     1.50000     0.07500   0.
     2.50000     0.11000   0.
     3.50000     0.13000   0.
     4.50000     0.16000   0.
     5.50000     0.20000   0.
     6.50000     0.21000   0.
     7.50000     0.19000   0.
     8.50000     0.14500   0.
     9.50000     0.08000   0.
    10.50000     0.03500   0.
    11.50000     0.00500   0.
    12.50000    -0.03500   0.
    13.50000    -0.08500   0.
    14.50000    -0.13000   0.
    15.50000    -0.17000   0.
    16.50000    -0.17000   0.
    17.50000    -0.13000   0.
    18.50000    -0.08000   0.
    19.50000    -0.02500   0.
    20.50000    -0.03500   0.
    21.50000    -0.10000   0.
    22.50000    -0.10500   0.
    23.50000    -0.05500   0.
    24.50000     0.00000   0.
    25.50000     0.06000   0.
    26.50000     0.09000   0.
    27.50000     0.09000   0.
    28.50000     0.10500   0.
    29.50000     0.13500   0.
    30.50000     0.15500   0.
    31.50000     0.16000   0.
    32.50000     0.18500   0.
    33.50000     0.23500   0.
    34.50000     0.25000   0.
    35.50000     0.23000   0.
    36.50000     0.28500   0.
    37.49500     0.41500   0.
    38.49000     0.48000   0.
    39.49000     0.48000   0.
    40.49000     0.51500   0.
    41.49000     0.58500   0.
    42.48500     0.67500   0.
    43.48000     0.75500   0.
    44.48000     0.80500   0.
    45.48000     0.85500   0.
    46.48000     0.90500   0.
    47.48000     0.95500   0.
    48.48000     0.96000   0.
    49.48000     0.92000   0.
    50.48000     0.88000   0.
    51.48000     0.84000   0.
    52.48000     0.85000   0.
    53.48000     0.90500   0.
    54.48000     0.91000   0.
    55.48000     0.87000   0.
    56.48000     0.82500   0.
    57.48000     0.77500   0.
    58.48000     0.76500   0.
    59.48000     0.79000   0.
    60.48000     0.80000   0.
    61.48000     0.80000   0.
    62.48500     0.80500   0.
    63.49000     0.81500   0.
    64.49000     0.81500   0.
    65.49000     0.81000   0.
    66.49000     0.82000   0.
    67.49000     0.84000   0.
    68.49000     0.86000   0.
    69.49000     0.88500   0.
    70.49000     0.95000   0.
    71.48500     1.05000   0.
    72.48000     1.15000   0.
    73.48000     1.24500   0.
    74.48000     1.31500   0.
    75.47500     1.37000   0.
    76.47000     1.43000   0.
    77.47000     1.48500   0.
    78.47000     1.46000   0.
    79.47000     1.36500   0.
    80.47000     1.34500   0.
    81.47000     1.39500   0.
    82.47000     1.39500   0.
    83.47000     1.34500   0.
    84.47000     1.33500   0.
    85.47000     1.36000   0.
    86.47000     1.38500   0.
    87.47000     1.41000   0.
    88.47000     1.40500   0.
    89.47000     1.38000   0.
    90.47000     1.39500   0.
    91.47000     1.44500   0.
    92.47000     1.47500   0.
    93.47000     1.48500   0.
    94.47000     1.49500   0.
    95.47500     1.50000   0.
    96.48000     1.51000   0.
    97.48000     1.53000   0.
    98.48000     1.54000   0.
    99.48000     1.54000   0.
   100.48000     1.56000   0.
   101.48000     1.59500   0.
   102.48000     1.60500   0.
   103.48000     1.59500   0.
   104.48000     1.60500   0.
   105.48000     1.63000   0.
   106.48000     1.66000   0.
   107.48000     1.69500   0.
   108.48000     1.72000   0.
   109.48500     1.74500   0.
   110.49000     1.78500   0.
   111.49000     1.83000   0.
   112.49000     1.84500   0.
   113.49000     1.83500   0.
   114.49000     1.83500   0.
   115.49000     1.84500   0.
   116.49000     1.85500   0.
   117.49000     1.86000   0.
   118.49000     1.84500   0.
   119.49000     1.82000   0.
   120.49000     1.83500   0.
   121.49000     1.88500   0.
   122.49000     1.93500   0.
   123.49000     1.99500   0.
   124.49000     2.08500   0.
   125.48500     2.19500   0.
   126.48000     2.29500   0.
   127.68746     2.34000   0.
   128.67523     2.34000   0.
   130.05439     2.34000   0.
    -3.37000    -5.00000   0.
    -0.11000    -4.96000   0.
     3.15000    -4.87500   0.
     6.41500    -4.82500   0.
     9.68000    -4.90500   0.
    12.94000    -5.06000   0.
    16.20000    -5.12500   0.
    19.46000    -5.09500   0.
    22.72000    -5.04000   0.
    25.98000    -4.96000   0.
    29.24500    -4.88000   0.
    32.51000    -4.79500   0.
    35.77000    -4.66500   0.
    39.03000    -4.53000   0.
    42.29000    -4.34500   0.
    45.55000    -4.14000   0.
    48.81000    -4.09000   0.
    52.07000    -4.10500   0.
    55.33500    -4.14500   0.
    58.60000    -4.20000   0.
[...]
POINT_DATA      2188
CELL_DATA      4025
SCALARS Resistivity(ohm.m) double 1
LOOKUP_TABLE default
           374.64326           462.08086           420.80024           388.07933           396.21508           423.38705           383.32598           382.86327           377.15335           374.37310           363.41286           416.52187           391.33717           376.11762           371.59097           426.11211           385.54368           379.91718           365.57268           368.42849           377.61691           436.77260           361.89980           361.65381           383.60553           423.06131           479.23748           294.34113           444.96304           188.91128           444.01585           401.49532           384.19216           395.98504           296.95773           451.35247           415.45612           423.87401           178.82006           377.82987           353.54905           440.86536          6769.26321           615.60324           381.51119           390.12635           382.46022           288.58720           397.02589           375.76312           376.28005           359.61589           338.10325           333.44539           291.96081           413.72044           369.65071           449.26310           372.87175           465.80651           384.97331           381.00692           280.70730           334.85158           377.64658          3082.39344           337.98658           424.14226           429.37036           379.84149           444.22501           400.40306           452.11608           374.62037           312.46517           369.32558           458.07137           300.70421           380.63457           469.92665           320.42572           734.78087           380.97684           266.77910           649.67394           379.52081           195.86212           374.93866           176.32683           446.05415           269.56115           379.87717           404.49616           378.28022           199.54155           396.03535           384.26233           349.61389           388.17465           269.81224           385.52885           365.61929           391.44790           391.24684           515.48812           472.16101           405.20877           394.75653           400.77137           366.60695           375.89255           421.96662           381.96945           287.31810           386.07114           373.14085          2576.07039           374.92125           382.90970           478.40034           339.94921           393.81422           415.63867           236.96410           201.67984           413.29110           460.06860           447.36112           423.30755           402.31428           417.90652           304.06190           385.50402           373.02670           204.17928           389.01030           386.80219           389.10330           379.67571           384.04709           448.26383           173.15835           236.03682           224.43269           204.83694           379.70652           386.14562           438.11846           203.55275           397.97494           419.27638           454.19038           370.08835           364.42685           409.92391           295.21630           392.01939           322.02626           574.33126           445.35307           404.29856           414.29369           395.68601           479.61586           424.92266           275.74045           386.55303           387.01086           394.53307           427.06444           456.51976           379.21273           380.97495           718.39115           399.08012           377.13516           232.06699           372.82734           390.22717           392.21101           393.29177           389.11274           240.15793           561.47705           377.80687           476.21691           385.54146           256.74156           534.15810           540.41362           241.34559           427.19483           401.83756           433.74510           321.94604           481.82035           380.12423           378.71907           980.95021           386.83045           264.83332           450.04062           281.94518           369.96855           800.91957           409.47907           274.82363           439.73956           388.49885           389.91141           455.66612           345.62212           468.41631           397.99530           383.01122           211.30171           385.91849           412.22443           438.71823           389.07591           428.53543           399.70526           352.52027           492.98801           775.16206           373.42577           369.03189          1479.57432           422.24750           359.41458           420.21921           442.76553           394.43495           330.29935           374.75696           394.66766           407.48021           381.63953           380.83012           421.98725           400.19879           387.83530           393.52573           373.47524           291.31214           392.83070           466.14372           379.60695           387.60777           396.59349           301.50222           387.94481           378.37613           428.65998           466.78930           390.01240           377.39693          4718.55113           484.87077           391.55837           224.34775           294.41138           372.87967           397.61726           401.89297           381.56298           419.97867           413.73018           385.31440           421.42056           271.19929           588.53739           417.38951           359.88719           394.80991           343.85581           419.27006           421.74942           371.37301           411.77880           752.90049           380.19005           327.68494          6426.10432           377.38734           382.07039           334.11068           378.38751           393.82779           402.65779           374.85787           366.91017           431.83387           381.20287           390.63317           384.95658           290.74678           376.47904           317.98656           309.78241           354.64949           791.06012           390.75100           281.87358           424.42576           396.73349           451.20990           351.21863           376.03144           382.52167           997.68111           533.66267           381.84422           414.74735           344.70405           364.01452           389.57013           206.06072           383.93821           513.39342           447.45020           396.35334           399.10970           413.84981           390.17347           410.20952           212.28534           376.19541           450.99729           402.27772           216.48481           439.46870           228.40130           415.39689           182.66984           386.21885           376.34551           399.12096           399.43398           395.49031           422.65099           379.46413           399.31100           391.59106           437.03264           379.35427           571.02052           221.18934           322.99133           401.29312           389.48272           423.85445           395.95578           349.79499           397.94013           376.31516           398.93929           378.91978          1258.87311           372.30144           288.84024           345.57526           359.24691           377.79471           311.27673           390.96550           374.45728           263.60036           396.57319           423.84938           459.08367           364.24944           332.33715           426.06353           850.35711           191.57691           371.85509           306.56486           277.71569           463.29289           407.46099           395.12663           257.37705           385.72043           403.18300           235.49931           536.47147           370.57085           425.27577          8898.49573           395.78945           286.35429           401.49180           470.84245           267.47867           380.73769           481.68112           436.87369           813.11441           377.73165           372.45919           397.19401           202.54845           216.03984           415.65041           420.39156           389.16478           421.54206           376.54831           390.17349           283.65663           385.32213           256.34680           375.18509           233.72287           381.31806           368.75370           298.52902           362.14208           443.08014           397.78393           384.09940           286.58835           215.82947           380.18332           393.12232           406.83400           447.76045           259.51884           455.74957           396.73479           376.51416           350.84442           387.95903           375.40305           445.09895           375.37285           961.82101           365.29027           332.49991           275.85320           381.70426           378.50137           399.00030           392.56604           374.60827           417.32287           357.39372           378.35621           413.10556           398.33846           322.34583           197.11201           375.60921           410.52019           396.57242           473.80694           359.58137           387.88848           414.72393           272.91655           406.30420           378.12800           586.72905           798.42296           225.05463           289.31046           403.68279           453.43717           275.59151           462.61201           202.11253           394.95914           297.85503           319.08318           442.33893           361.86111           446.61950           367.95857           383.53760           398.68664           634.60173           197.14047           374.94236           362.68503           419.46681           374.56429           372.37055           452.64893          1810.63376           874.68787           393.01881           382.29619           483.08888           371.62303           788.68497           455.03375           311.33331           378.01182           398.77716           384.63407           296.74516           383.50539           448.86638           379.67566           306.00726           375.62408           403.20726           398.92311           387.21132           377.14027           379.80852           379.06112           379.41901           381.01771           463.56870           378.31973           305.39778           453.34864           397.32562           351.52734           373.80550           381.49461           398.90882           357.49038           276.39085           379.58947           394.81984           349.05531           400.47387           378.76932           376.75074          1056.86194           389.60514           398.08289           469.57696           470.81698           394.07040           395.37539           381.61818           292.27406           188.57867           419.98161           293.68681           377.87464           363.07285           397.06982           408.86110           431.14546           199.23059           478.69335           372.29317           479.67627           375.62688           477.98909           398.78691           379.13629           225.07208           383.75517           252.19664           364.61152           373.24556           214.14563           371.65005           356.00529           393.44974           469.91170           618.95266           378.58135           391.17540           379.43726           214.45716           394.40051           687.07909           383.57812           381.56702           374.28388           281.76605           400.40503           398.93262           314.97086           365.34850           368.07026           397.44228           380.14561           556.51928           519.20812           379.67012           396.50170           381.26017           591.10491           437.92980           684.04791           580.58315           654.10889           698.19443           408.90475           378.26161           392.33429           381.15410           374.76877           422.44871           377.91390           379.08038           378.23093           403.53544           198.23933           342.62705           398.20201           380.30659           397.88830           305.44177           398.26055           378.08599           494.18916           381.41561           376.33009           384.26954           383.29088           325.85097           376.85572           352.52578           382.04727           398.58164           392.25660           568.78624          1330.86602           339.88824           377.33373           447.71256           343.25647           397.69172           303.78945           436.15055           406.72247           379.85800           380.29355           394.14613           375.27301           379.21171           399.57277           380.03919           368.96379           261.00700           407.91183           442.01453           336.31256           357.49191           311.08937          2342.37427           397.68724           294.28515           417.12553           373.52913           439.77404           400.41525           381.88710           235.44933           400.12529           284.04384           274.26148           410.08009           480.58042           347.41927           381.72446           359.40426           428.91705           397.08832           396.74274           295.64044           376.05551           495.18024           381.16541           375.28533           398.18633           297.98765           383.01231           396.65845           397.29317           381.19078           487.90410           424.21590           638.37059           376.34210           571.16180           443.53422           633.55772           293.03765           398.56963           451.49216           401.02152           325.36262           428.17159           367.09710           370.30109           379.25189           396.77975           397.48588           378.21210           401.65810           410.63141           383.13438          1086.53337           455.51295           235.92405           373.15289           396.07331           378.65200           378.58617           266.46740           377.15011           309.17702           375.13278           402.79148           279.78744           395.78967           232.89608           420.25172           391.23851           517.75758           377.28563           377.34870           574.44264           375.46571           221.24526           399.80985           380.89200           380.44806           356.68034           376.96821           397.14295           406.01080           390.94627           351.48229           408.67781          3151.65057           371.44807           398.44657           381.92494           408.17037           422.71925           394.77066           483.18559           377.49093           380.18170           352.62372           424.78692           407.44215           374.31372           439.14921           400.72387           458.84077           432.17359           377.43290           376.64550           449.84343           369.14663           220.43746           397.46044           375.63495           432.72790           377.85716           375.61922           375.34837           386.30117           431.56816           377.55627           375.90173           423.78349           420.57934           413.80128           689.06587         22031.66718           376.75419           400.82382           417.93728           474.67417           304.64906           784.71656           295.71024           625.08797           252.02537           382.94544           422.48971           380.10691           379.20638           199.55235           403.41692           236.31308           688.83388           272.85746           396.19999           378.66032           399.60422           406.87144           485.07059           400.80103           308.46220           315.51751           333.80538           376.78021           413.55548           255.62165           378.66703           632.81245           515.89616           511.54527           376.04990           376.25404           268.79319           379.84812           349.66044           389.82919           401.36660           375.43598           556.36015           397.77811           380.86437           375.38509           379.90620           258.39115           379.97494           243.45658           364.25463           363.67326           692.51100           380.20031           391.17180           474.64081           393.97366           398.83352           316.00349           384.87623           327.74559           378.88760           376.75282           290.92830           399.81877           650.19716           379.18304           189.40700           445.02942           433.17358           378.03436           319.53237           355.25981           375.91217           404.23988           335.41183           378.40661           299.39187           364.63988           295.15972           380.61664           398.01072           409.32266           544.28383           455.81409           551.33410           381.84488           323.43572           393.13697           327.52947           339.28700           358.13442           375.74494           440.94498           410.74613           463.67795           692.82564           252.07689           407.23145           398.09710           380.11138           402.14096           439.43999           361.24068           425.51681           359.17276           435.03121           302.93988           397.58662           316.20765           245.11119           397.28042           422.83857           605.34221           380.74946           378.37436           416.89205           379.55918           380.57007           381.05129           394.68290           430.19829           281.97695           415.32978           348.33758           273.76510           296.19617           354.64487           380.77329           376.87121           430.12011           375.82248           415.43716           398.01241           556.67652           380.04093           379.89733           640.94404           398.51348           702.64554           372.53824           397.74948           249.39484           377.19076           398.34071           505.08619           400.21653           399.97957           406.99678           376.54472           397.12308          1037.82885           379.97542           415.38269           356.07289           692.69354           684.85150           621.48568           409.50359           457.96884           436.55824           398.48612           399.33063           404.12062           399.58271           528.33361           400.51949           378.85144           348.09015           410.03935           294.13281           382.58828           397.29411           415.44086           380.05996           521.55552           375.70010           377.67188           397.42891           398.75740           381.29533           404.78054           379.45238           415.99831           454.41210           397.98953           396.87274           417.94372           401.85365           577.82121           410.57731           396.99038           381.11145           375.71552           378.22136           314.79928           395.52182           375.34011           399.78341           374.22149           375.90571           376.23166           377.16920           378.91838           375.75859           367.95050           379.89627           412.48424           375.04760           456.40934           375.46885           426.02239           334.37732           390.35895           267.71012           168.98204           380.44107           494.10287           609.45535           595.56401           381.04370           334.89428  