# vtk DataFile Version 3.0
Output from R2
ASCII
DATASET UNSTRUCTURED_GRID
POINTS       2188 double
    -5.00000     0.00000   0.
     0.00000     0.00000   0.
     1.00000     0.05000   0.
     2.00000     0.10000   0.
     3.00000     0.12000   0.
     4.00000     0.14000   0.
     5.00000     0.18000   0.
     6.00000     0.22000   0.
     7.00000     0.20000   0.
     8.00000     0.18000   0.
     9.00000     0.11000   0.
    10.00000     0.05000   0.
    11.00000     0.02000   0.
    12.00000    -0.01000   0.
    13.00000    -0.06000   0.
    14.00000    -0.11000   0.
    15.00000    -0.15000   0.
    16.00000    -0.19000   0.
    17.00000    -0.15000   0.
    18.00000    -0.11000   0.
    19.00000    -0.05000   0.
    20.00000     0.00000   0.
    21.00000    -0.07000   0.
    22.00000    -0.13000   0.
    23.00000    -0.08000   0.
    24.00000    -0.03000   0.
    25.00000     0.03000   0.
    26.00000     0.09000   0.
    27.00000     0.09000   0.
    28.00000     0.09000   0.
    29.00000     0.12000   0.
    30.00000     0.15000   0.
    31.00000     0.16000   0.
    32.00000     0.16000   0.
    33.00000     0.21000   0.
    34.00000     0.26000   0.
    35.00000     0.24000   0.
    36.00000     0.22000   0.
    37.00000     0.35000   0.
    37.99000     0.48000   0.
    38.99000     0.48000   0.
    39.99000     0.48000   0.
    40.99000     0.55000   0.
    41.99000     0.62000   0.
    42.98000     0.73000   0.
    43.98000     0.78000   0.
    44.98000     0.83000   0.
    45.98000     0.88000   0.
    46.98000     0.93000   0.
    47.98000     0.98000   0.
    48.98000     0.94000   0.
    49.98000     0.90000   0.
    50.98000     0.86000   0.
    51.98000     0.82000   0.
    52.98000     0.88000   0.
    53.98000     0.93000   0.
    54.98000     0.89000   0.
    55.98000     0.85000   0.
    56.98000     0.80000   0.
    57.98000     0.75000   0.
    58.98000     0.78000   0.
    59.98000     0.80000   0.
    60.98000     0.80000   0.
    61.98000     0.80000   0.
    62.99000     0.81000   0.
    63.99000     0.82000   0.
    64.99000     0.81000   0.
    65.99000     0.81000   0.
    66.99000     0.83000   0.
    67.99000     0.85000   0.
    68.99000     0.87000   0.
    69.99000     0.90000   0.
    70.99000     1.00000   0.
    71.98000     1.10000   0.
    72.98000     1.20000   0.
    73.98000     1.29000   0.
    74.98000     1.34000   0.
    75.97000     1.40000   0.
    76.97000     1.46000   0.
    77.97000     1.51000   0.
    78.97000     1.41000   0.
    79.97000     1.32000   0.
    80.97000     1.37000   0.
    81.97000     1.42000   0.
    82.97000     1.37000   0.
    83.97000     1.32000   0.
    84.97000     1.35000   0.
    85.97000     1.37000   0.
    86.97000     1.40000   0.
    87.97000     1.42000   0.
    88.97000     1.39000   0.
    89.97000     1.37000   0.
    90.97000     1.42000   0.
    91.97000     1.47000   0.
    92.97000     1.48000   0.
    93.97000     1.49000   0.
    94.97000     1.50000   0.
    95.98000     1.50000   0.
    96.98000     1.52000   0.
    97.98000     1.54000   0.
    98.98000     1.54000   0.
    99.98000     1.54000   0.
   100.98000     1.58000   0.
   101.98000     1.61000   0.
   102.98000     1.60000   0.
   103.98000     1.59000   0.
   104.98000     1.62000   0.
   105.98000     1.64000   0.
   106.98000     1.68000   0.
   107.98000     1.71000   0.
   108.98000     1.73000   0.
   109.99000     1.76000   0.
   110.99000     1.81000   0.
   111.99000     1.85000   0.
   112.99000     1.84000   0.
   113.99000     1.83000   0.
   114.99000     1.84000   0.
   115.99000     1.85000   0.
   116.99000     1.86000   0.
   117.99000     1.86000   0.
   118.99000     1.83000   0.
   119.99000     1.81000   0.
   120.99000     1.86000   0.
   121.99000     1.91000   0.
   122.99000     1.96000   0.
   123.99000     2.03000   0.
   124.99000     2.14000   0.
   125.98000     2.25000   0.
   126.98000     2.34000   0.
   131.98000     2.34000   0.
    -5.00000    -5.00000   0.
    -1.74000    -5.00000   0.
     1.52000    -4.92000   0.
     4.78000    -4.83000   0.
     8.05000    -4.82000   0.
    11.31000    -4.99000   0.
    14.57000    -5.13000   0.
    17.83000    -5.12000   0.
    21.09000    -5.07000   0.
    24.35000    -5.01000   0.
    27.61000    -4.91000   0.
    30.88000    -4.85000   0.
    34.14000    -4.74000   0.
    37.40000    -4.59000   0.
    40.66000    -4.47000   0.
    43.92000    -4.22000   0.
    47.18000    -4.06000   0.
    50.44000    -4.12000   0.
    53.70000    -4.09000   0.
    56.97000    -4.20000   0.
    60.23000    -4.20000   0.
    63.49000    -4.18000   0.
    66.75000    -4.17000   0.
    70.01000    -4.10000   0.
    73.27000    -3.77000   0.
    76.53000    -3.57000   0.
    79.79000    -3.66000   0.
    83.06000    -3.64000   0.
    86.32000    -3.62000   0.
    89.58000    -3.62000   0.
    92.84000    -3.52000   0.
    96.10000    -3.50000   0.
    99.36000    -3.46000   0.
   102.62000    -3.40000   0.
   105.89000    -3.36000   0.
   109.15000    -3.26000   0.
   112.41000    -3.16000   0.
   115.67000    -3.15000   0.
   118.93000    -3.17000   0.
   122.19000    -3.08000   0.
   125.45000    -2.81000   0.
   128.71000    -2.66000   0.
   131.98000    -2.66000   0.
  -639.88000     0.00000   0.
  -639.88000  -385.93000   0.
   766.86000     2.34000   0.
   766.86000  -385.93000   0.
    -3.07439     0.00000   0.
    -1.69523     0.00000   0.
    -0.70746     0.00000   0.
     0.50000     0.02500   0.
     1.50000     0.07500   0.
     2.50000     0.11000   0.
     3.50000     0.13000   0.
     4.50000     0.16000   0.
     5.50000     0.20000   0.
     6.50000     0.21000   0.
     7.50000     0.19000   0.
     8.50000     0.14500   0.
     9.50000     0.08000   0.
    10.50000     0.03500   0.
    11.50000     0.00500   0.
    12.50000    -0.03500   0.
    13.50000    -0.08500   0.
    14.50000    -0.13000   0.
    15.50000    -0.17000   0.
    16.50000    -0.17000   0.
    17.50000    -0.13000   0.
    18.50000    -0.08000   0.
    19.50000    -0.02500   0.
    20.50000    -0.03500   0.
    21.50000    -0.10000   0.
    22.50000    -0.10500   0.
    23.50000    -0.05500   0.
    24.50000     0.00000   0.
    25.50000     0.06000   0.
    26.50000     0.09000   0.
    27.50000     0.09000   0.
    28.50000     0.10500   0.
    29.50000     0.13500   0.
    30.50000     0.15500   0.
    31.50000     0.16000   0.
    32.50000     0.18500   0.
    33.50000     0.23500   0.
    34.50000     0.25000   0.
    35.50000     0.23000   0.
    36.50000     0.28500   0.
    37.49500     0.41500   0.
    38.49000     0.48000   0.
    39.49000     0.48000   0.
    40.49000     0.51500   0.
    41.49000     0.58500   0.
    42.48500     0.67500   0.
    43.48000     0.75500   0.
    44.48000     0.80500   0.
    45.48000     0.85500   0.
    46.48000     0.90500   0.
    47.48000     0.95500   0.
    48.48000     0.96000   0.
    49.48000     0.92000   0.
    50.48000     0.88000   0.
    51.48000     0.84000   0.
    52.48000     0.85000   0.
    53.48000     0.90500   0.
    54.48000     0.91000   0.
    55.48000     0.87000   0.
    56.48000     0.82500   0.
    57.48000     0.77500   0.
    58.48000     0.76500   0.
    59.48000     0.79000   0.
    60.48000     0.80000   0.
    61.48000     0.80000   0.
    62.48500     0.80500   0.
    63.49000     0.81500   0.
    64.49000     0.81500   0.
    65.49000     0.81000   0.
    66.49000     0.82000   0.
    67.49000     0.84000   0.
    68.49000     0.86000   0.
    69.49000     0.88500   0.
    70.49000     0.95000   0.
    71.48500     1.05000   0.
    72.48000     1.15000   0.
    73.48000     1.24500   0.
    74.48000     1.31500   0.
    75.47500     1.37000   0.
    76.47000     1.43000   0.
    77.47000     1.48500   0.
    78.47000     1.46000   0.
    79.47000     1.36500   0.
    80.47000     1.34500   0.
    81.47000     1.39500   0.
    82.47000     1.39500   0.
    83.47000     1.34500   0.
    84.47000     1.33500   0.
    85.47000     1.36000   0.
    86.47000     1.38500   0.
    87.47000     1.41000   0.
    88.47000     1.40500   0.
    89.47000     1.38000   0.
    90.47000     1.39500   0.
    91.47000     1.44500   0.
    92.47000     1.47500   0.
    93.47000     1.48500   0.
    94.47000     1.49500   0.
    95.47500     1.50000   0.
    96.48000     1.51000   0.
    97.48000     1.53000   0.
    98.48000     1.54000   0.
    99.48000     1.54000   0.
   100.48000     1.56000   0.
   101.48000     1.59500   0.
   102.48000     1.60500   0.
   103.48000     1.59500   0.
   104.48000     1.60500   0.
   105.48000     1.63000   0.
   106.48000     1.66000   0.
   107.48000     1.69500   0.
   108.48000     1.72000   0.
   109.48500     1.74500   0.
   110.49000     1.78500   0.
   111.49000     1.83000   0.
   112.49000     1.84500   0.
   113.49000     1.83500   0.
   114.49000     1.83500   0.
   115.49000     1.84500   0.
   116.49000     1.85500   0.
   117.49000     1.86000   0.
   118.49000     1.84500   0.
   119.49000     1.82000   0.
   120.49000     1.83500   0.
   121.49000     1.88500   0.
   122.49000     1.93500   0.
   123.49000     1.99500   0.
   124.49000     2.08500   0.
   125.48500     2.19500   0.
   126.48000     2.29500   0.
   127.68746     2.34000   0.
   128.67523     2.34000   0.
   130.05439     2.34000   0.
    -3.37000    -5.00000   0.
    -0.11000    -4.96000   0.
     3.15000    -4.87500   0.
     6.41500    -4.82500   0.
     9.68000    -4.90500   0.
    12.94000    -5.06000   0.
    16.20000    -5.12500   0.
    19.46000    -5.09500   0.
    22.72000    -5.04000   0.
    25.98000    -4.96000   0.
    29.24500    -4.88000   0.
    32.51000    -4.79500   0.
    35.77000    -4.66500   0.
    39.03000    -4.53000   0.
    42.29000    -4.34500   0.
    45.55000    -4.14000   0.
    48.81000    -4.09000   0.
    52.07000    -4.10500   0.
    55.33500    -4.14500   0.
    58.60000    -4.20000   0.
[...]
POINT_DATA      2188
CELL_DATA      4025
SCALARS Resistivity(ohm.m) double 1
LOOKUP_TABLE default
           429.05479           460.02492           435.00907           432.45789           432.61629           358.75708           432.40540           432.42703           432.29250           428.08326           387.03924           490.28322           432.46763           432.23933           431.56161           445.43046           432.59022           432.36496           383.22017           430.55186           432.35027           517.88524           424.85689           415.64782           432.38828           404.20050           448.22490           298.50615           449.02404           218.23486           369.50884           433.35854           432.60341           432.39135           347.39549           492.11941           487.97769           486.97559           197.16734           432.35616           405.72457           477.90792          4619.59433           633.63461           432.36725           432.45960           439.76473           344.02574           433.54438           389.08789           432.23846           423.79233           403.66894           298.39725           323.69763           480.92733           426.63181           497.09082           378.77944           442.63105           432.42935           432.36426           359.13319           374.96974           432.31759          2185.29611           309.63131           433.87732           486.59085           432.36504           444.84940           454.06474           387.25338           384.14872           356.27341           417.82263           468.94489           340.50529           436.83177           444.78414           382.72511           644.28112           432.36434           300.49913           629.94230           432.36548           238.04780           431.48522           194.64498           366.63709           360.87031           432.39108           432.51980           432.36238           241.78325           438.29498           432.39896           409.20453           432.43298           361.28379           432.51817           430.31740           442.87376           445.55073           581.14061           510.72977           432.56812           432.64054           433.52618           430.06170           392.85496           433.58632           432.36893           367.98835           432.44071           440.70551          2210.96780           431.67246           432.39334           424.30428           488.99739           433.03573           433.00763           240.32621           248.18588           434.81964           509.84040           527.04632           478.05507           432.42332           484.94896           409.74030           435.15514           426.91008           230.03963           432.52513           433.30477           432.92371           434.13958           433.73905           519.08835           187.92728           248.41937           288.12605           250.87609           432.36531           487.15731           468.73703           253.69250           432.93109           472.18693           465.80253           431.78545           430.27572           432.72621           390.06422           432.95617           435.64180           626.28065           439.58395           387.34233           477.15967           432.41127           446.10603           463.07703           260.52226           432.64543           432.46121           432.38988           494.52071           522.37316           432.36336           432.36422           679.31178           378.30830           385.76315           317.60373           507.92830           432.66756           432.40857           437.74475           432.46893           253.41273           580.50390           409.30392           554.24367           449.58704           336.47250           592.93749           609.34289           336.72677           492.78989           432.43481           441.16852           465.21174           450.93939           432.36483           432.36200           742.70303           432.51005           362.02104           356.03500           378.07939           431.56110           709.91458           545.12450           273.95877           506.72461           433.61029           433.64464           445.11727           426.59350           517.23523           432.32584           432.37915           255.02425           434.14192           476.05282           448.99042           432.68716           451.43875           432.35460           380.59030           528.91733           683.29379           431.80047           434.61550          1236.66812           440.34799           428.14422           434.24724           559.54301           432.44239           407.47490           434.51416           433.44182           442.14029           432.36541           432.36465           480.81254           432.37806           432.63438           443.31212           432.65705           355.74446           432.42557           449.07506           432.41377           432.94211           432.34578           369.13122           435.76015           379.42715           492.41683           512.03696           529.02552           432.33279          3044.70176           553.12613           433.52191           295.34271           393.78855           431.74355           432.32570           454.46057           432.36502           486.77496           433.44867           433.26725           441.90368           349.43022           499.29820           433.14718           435.98071           432.50442           421.51784           433.41911           469.46947           431.64564           432.81070           669.45078           432.38617           415.13454          5086.79763           433.80492           433.65962           421.23664           432.36109           432.38459           432.56139           387.36222           422.58514           460.06975           432.36445           448.01288           440.75803           382.84484           435.17758           404.21215           320.78250           327.64519           699.82622           433.01497           383.07729           508.87135           432.33330           503.63281           427.88565           396.92758           432.67537           847.57914           480.02542           432.36663           472.22002           420.97640           419.98556           444.98354           230.70806           432.69152           610.71060           357.07277           432.34096           432.34316           373.23389           432.54885           433.62868           235.52810           432.24827           441.73549           432.46041           256.07409           465.79995           242.42808           455.44038           211.20401           432.42094           433.38739           432.33772           432.37346           432.36477           449.31352           432.36628           432.34048           432.71910           448.84259           432.36639           499.50923           261.43546           345.04724           432.47640           324.98194           435.89520           432.35287           423.23111           433.39630           432.26357           432.33711           432.36656           917.64357           432.23076           318.16244           417.86450           430.25085           432.33015           402.55908           460.45189           431.96680           407.13127           432.57015           447.03993           457.84415           377.35460           332.38134           481.91944           773.44496           211.88613           429.37761           311.59697           365.60080           446.07013           460.99058           432.37865           369.81718           438.87303           432.43988           302.90048           549.35043           428.29562           437.07299          5600.44980           451.79530           292.46686           432.51279           537.13959           393.61111           432.36479           404.04319           437.91538           635.91343           432.34479           389.36140           436.41359           236.05371           281.18493           466.79140           414.39770           432.43114           375.13108           432.29551           432.43045           370.77428           432.40986           267.99717           431.83982           260.67225           432.36504           439.47130           356.47509           427.44880           466.45447           432.75624           432.45796           387.00419           230.92224           432.40608           434.55864           455.56734           447.43933           351.49460           512.11108           432.33360           409.18171           427.14407           439.31982           432.06776           507.87416           431.97579           857.93933           330.20799           418.88208           371.21416           432.41473           415.73845           436.09395           432.67707           433.90148           437.89725           411.80690           412.63875           432.94491           434.13247           462.82426           240.73985           432.00822           434.06404           432.37134           380.64271           431.90487           432.53543           483.25757           374.81228           422.48495           432.34358           526.58073           635.52243           241.55835           353.12998           432.48564           369.16450           345.08525           520.38793           221.69129           432.36498           360.28316           407.31658           513.52065           428.16617           492.98269           425.10259           432.55813           452.99332           585.36535           215.57401           432.04501           351.80023           461.32501           429.98298           430.24611           483.08805          1257.09537           689.15303           432.39578           432.36959           426.52658           380.38444           585.56067           502.25988           401.28666           432.35959           432.33408           432.48877           368.00208           432.49836           513.00394           432.36580           385.14018           432.08061           435.17236           432.33302           432.42662           432.31702           432.36553           432.36609           432.36434           432.36481           373.02153           380.94955           392.04065           379.35911           440.54171           423.32450           393.47270           432.36512           432.33444           427.73867           316.18840           432.36596           432.42282           358.49109           433.03325           432.36626           412.74371           904.65793           438.22066           432.32906           514.09403           452.62866           432.71556           432.35732           432.36533           361.67139           203.16480           381.71774           355.06076           356.09520           430.75828           433.03646           432.65001           439.01506           225.36390           434.13896           432.35840           507.61928           432.14982           525.79581           432.32976           433.14718           237.59275           416.77903           262.45630           427.29811           431.61420           264.10019           431.26768           366.50629           433.59081           542.77233           660.16649           418.25396           432.41847           432.36546           228.30040           432.37412           561.29761           319.13389           434.85043           431.89431           321.16307           432.43678           432.35470           406.86063           429.82125           432.37931           432.32574           432.36495           481.41689           470.42541           432.36545           432.33925           432.36509           527.36535           516.31704           689.24725           642.26803           681.29186           696.95731           432.80868           420.42210           432.54849           432.36447           431.26192           428.57013           432.35199           432.36662           432.35038           461.40887           221.74505           411.14385           432.32883           432.36508           432.33048           387.10511           432.33177           422.24942           573.78984           432.36511           432.26365           432.41368           432.44236           414.95890           432.70829           308.42422           432.36723           432.33386           432.44745           491.51002          1213.41397           421.14718           432.34310           533.81942           347.14513           432.32717           382.33979           522.31164           500.12471           432.36549           432.36464           432.40506           432.07909           432.36661           432.34600           432.36526           348.68103           272.11090           433.23586           535.43347           367.02221           510.67791           405.94405          2061.15895           432.32868           330.05977           436.78415           432.85900           520.32857           432.36442           432.56453           257.26226           432.35800           296.60555           347.11271           468.18199           407.84720           424.91183           432.36547           429.89489           435.54771           432.32906           432.33653           330.11346           421.42511           452.29557           432.36521           432.40182           432.32709           455.10994           435.10688           432.33698           432.32977           432.36503           566.32879           434.30413           528.07488           432.27186           527.50775           460.31651           579.22060           391.62842           432.32717           520.37684           432.41117           414.83402           490.06984           431.90896           430.87101           432.36223           432.35615           432.33075           432.36330           432.39188           472.25422           445.82316           975.35884           538.40272           252.88118           430.76991           432.34591           432.36323           432.36571           306.46665           432.33496           359.31870           432.20946           432.41649           353.12826           432.35040           274.17862           500.19993           450.02224           554.10818           415.40915           425.14604           577.42153           431.89652           250.52954           432.35090           432.36543           432.36481           428.45285           432.32892           432.33291           432.49488           434.27678           419.70407           470.81901          2442.11575           424.06785           432.33272           432.62297           432.56469           500.26060           432.95133           447.64795           405.57908           432.36483           430.00529           490.97801           432.59433           433.06968           487.05579           432.39442           454.34529           515.17343           432.34786           427.31882           437.78279           430.59868           283.22841           432.32640           430.08660           515.41605           432.35856           432.17723           431.42546           432.80387           434.32524           423.76196           432.16473           500.04641           433.19560           432.78633           659.89399         13374.72125           432.31485           354.35748           433.82665           530.30075           355.63764           675.15438           392.15110           590.36129           342.16331           432.47017           454.71648           432.36504           432.36564           220.39910           432.43113           296.54844           535.69700           271.36209           432.50467           437.03320           432.34573           466.52209           459.09711           432.37280           333.02098           331.39770           418.42929           432.25968           435.47639           362.79191           432.34725           624.81747           477.47076           459.13566           428.91105           432.21250           291.14232           432.36390           354.66306           435.55586           434.31968           430.92211           518.01057           432.32807           433.29973           431.76435           432.36456           314.76417           432.36495           328.74354           342.32072           433.03111           616.41364           432.36493           432.52591           545.29182           435.79993           432.34463           383.58081           432.78837           332.96928           432.35488           401.58194           317.26413           432.35186           626.62618           432.36613           220.10179           510.33763           435.06716           432.36119           396.22902           483.56827           432.19960           432.44827           426.43366           432.36476           359.74628           430.69697           394.21338           432.36466           432.33511           432.61151           620.96047           439.32684           557.32752           440.98627           379.81637           432.51952           409.76567           376.60847           428.66559           432.09509           460.69850           432.66020           441.36289           630.68725           325.72279           461.02253           432.32726           432.36494           432.40339           435.60287           431.90930           433.63397           435.71344           434.86667           386.28106           432.32625           359.61885           321.53834           432.32837           433.39948           614.23891           432.36503           432.91012           432.93864           432.36512           432.36463           432.51175           434.30484           498.50024           351.92621           432.87269           424.88190           284.18475           322.44464           429.62429           432.36515           426.29101           464.16951           432.15604           483.19909           432.32559           554.75735           432.36470           432.37617           673.74606           432.33359           567.51816           422.52096           432.33021           307.59172           432.33967           432.35258           555.63352           432.41298           432.52076           432.52679           432.58220           470.01655           798.90517           432.36434           489.08223           423.96331           702.58002           705.08279           671.36817           454.50380           526.47088           435.86066           432.32988           432.43570           460.52424           432.38722           487.40991           432.66308           432.36591           418.10257           480.93592           379.73709           432.37309           432.33105           392.11991           432.37263           594.31796           432.35290           432.35447           432.34105           432.38374           432.39024           433.21757           432.36583           503.44066           453.72130           432.34048           432.33586           490.59913           432.40723           566.23371           448.31712           432.33212           432.36548           429.52124           432.35784           304.03026           360.82430           431.20218           435.44528           431.53391           443.14271           428.14986           432.28763           432.35313           432.22502           434.07112           432.36515           443.68242           431.94047           538.60769           430.55741           502.89940           287.39441           349.39536           280.80490           181.46993           432.36464           508.10430           453.86798           550.05370           432.36514           460.75804  