# vtk DataFile Version 3.0
Output from R2
ASCII
DATASET UNSTRUCTURED_GRID
POINTS       2188 double
    -5.00000     0.00000   0.
     0.00000     0.00000   0.
     1.00000     0.05000   0.
     2.00000     0.10000   0.
     3.00000     0.12000   0.
     4.00000     0.14000   0.
     5.00000     0.18000   0.
     6.00000     0.22000   0.
     7.00000     0.20000   0.
     8.00000     0.18000   0.
     9.00000     0.11000   0.
    10.00000     0.05000   0.
    11.00000     0.02000   0.
    12.00000    -0.01000   0.
    13.00000    -0.06000   0.
    14.00000    -0.11000   0.
    15.00000    -0.15000   0.
    16.00000    -0.19000   0.
    17.00000    -0.15000   0.
    18.00000    -0.11000   0.
    19.00000    -0.05000   0.
    20.00000     0.00000   0.
    21.00000    -0.07000   0.
    22.00000    -0.13000   0.
    23.00000    -0.08000   0.
    24.00000    -0.03000   0.
    25.00000     0.03000   0.
    26.00000     0.09000   0.
    27.00000     0.09000   0.
    28.00000     0.09000   0.
    29.00000     0.12000   0.
    30.00000     0.15000   0.
    31.00000     0.16000   0.
    32.00000     0.16000   0.
    33.00000     0.21000   0.
    34.00000     0.26000   0.
    35.00000     0.24000   0.
    36.00000     0.22000   0.
    37.00000     0.35000   0.
    37.99000     0.48000   0.
    38.99000     0.48000   0.
    39.99000     0.48000   0.
    40.99000     0.55000   0.
    41.99000     0.62000   0.
    42.98000     0.73000   0.
    43.98000     0.78000   0.
    44.98000     0.83000   0.
    45.98000     0.88000   0.
    46.98000     0.93000   0.
    47.98000     0.98000   0.
    48.98000     0.94000   0.
    49.98000     0.90000   0.
    50.98000     0.86000   0.
    51.98000     0.82000   0.
    52.98000     0.88000   0.
    53.98000     0.93000   0.
    54.98000     0.89000   0.
    55.98000     0.85000   0.
    56.98000     0.80000   0.
    57.98000     0.75000   0.
    58.98000     0.78000   0.
    59.98000     0.80000   0.
    60.98000     0.80000   0.
    61.98000     0.80000   0.
    62.99000     0.81000   0.
    63.99000     0.82000   0.
    64.99000     0.81000   0.
    65.99000     0.81000   0.
    66.99000     0.83000   0.
    67.99000     0.85000   0.
    68.99000     0.87000   0.
    69.99000     0.90000   0.
    70.99000     1.00000   0.
    71.98000     1.10000   0.
    72.98000     1.20000   0.
    73.98000     1.29000   0.
    74.98000     1.34000   0.
    75.97000     1.40000   0.
    76.97000     1.46000   0.
    77.97000     1.51000   0.
    78.97000     1.41000   0.
    79.97000     1.32000   0.
    80.97000     1.37000   0.
    81.97000     1.42000   0.
    82.97000     1.37000   0.
    83.97000     1.32000   0.
    84.97000     1.35000   0.
    85.97000     1.37000   0.
    86.97000     1.40000   0.
    87.97000     1.42000   0.
    88.97000     1.39000   0.
    89.97000     1.37000   0.
    90.97000     1.42000   0.
    91.97000     1.47000   0.
    92.97000     1.48000   0.
    93.97000     1.49000   0.
    94.97000     1.50000   0.
    95.98000     1.50000   0.
    96.98000     1.52000   0.
    97.98000     1.54000   0.
    98.98000     1.54000   0.
    99.98000     1.54000   0.
   100.98000     1.58000   0.
   101.98000     1.61000   0.
   102.98000     1.60000   0.
   103.98000     1.59000   0.
   104.98000     1.62000   0.
   105.98000     1.64000   0.
   106.98000     1.68000   0.
   107.98000     1.71000   0.
   108.98000     1.73000   0.
   109.99000     1.76000   0.
   110.99000     1.81000   0.
   111.99000     1.85000   0.
   112.99000     1.84000   0.
   113.99000     1.83000   0.
   114.99000     1.84000   0.
   115.99000     1.85000   0.
   116.99000     1.86000   0.
   117.99000     1.86000   0.
   118.99000     1.83000   0.
   119.99000     1.81000   0.
   120.99000     1.86000   0.
   121.99000     1.91000   0.
   122.99000     1.96000   0.
   123.99000     2.03000   0.
   124.99000     2.14000   0.
   125.98000     2.25000   0.
   126.98000     2.34000   0.
   131.98000     2.34000   0.
    -5.00000    -5.00000   0.
    -1.74000    -5.00000   0.
     1.52000    -4.92000   0.
     4.78000    -4.83000   0.
     8.05000    -4.82000   0.
    11.31000    -4.99000   0.
    14.57000    -5.13000   0.
    17.83000    -5.12000   0.
    21.09000    -5.07000   0.
    24.35000    -5.01000   0.
    27.61000    -4.91000   0.
    30.88000    -4.85000   0.
    34.14000    -4.74000   0.
    37.40000    -4.59000   0.
    40.66000    -4.47000   0.
    43.92000    -4.22000   0.
    47.18000    -4.06000   0.
    50.44000    -4.12000   0.
    53.70000    -4.09000   0.
    56.97000    -4.20000   0.
    60.23000    -4.20000   0.
    63.49000    -4.18000   0.
    66.75000    -4.17000   0.
    70.01000    -4.10000   0.
    73.27000    -3.77000   0.
    76.53000    -3.57000   0.
    79.79000    -3.66000   0.
    83.06000    -3.64000   0.
    86.32000    -3.62000   0.
    89.58000    -3.62000   0.
    92.84000    -3.52000   0.
    96.10000    -3.50000   0.
    99.36000    -3.46000   0.
   102.62000    -3.40000   0.
   105.89000    -3.36000   0.
   109.15000    -3.26000   0.
   112.41000    -3.16000   0.
   115.67000    -3.15000   0.
   118.93000    -3.17000   0.
   122.19000    -3.08000   0.
   125.45000    -2.81000   0.
   128.71000    -2.66000   0.
   131.98000    -2.66000   0.
  -639.88000     0.00000   0.
  -639.88000  -385.93000   0.
   766.86000     2.34000   0.
   766.86000  -385.93000   0.
    -3.07439     0.00000   0.
    -1.69523     0.00000   0.
    -0.70746     0.00000   0.
     0.50000     0.02500   0.
     1.50000     0.07500   0.
     2.50000     0.11000   0.
     3.50000     0.13000   0.
     4.50000     0.16000   0.
     5.50000     0.20000   0.
     6.50000     0.21000   0.
     7.50000     0.19000   0.
     8.50000     0.14500   0.
     9.50000     0.08000   0.
    10.50000     0.03500   0.
    11.50000     0.00500   0.
    12.50000    -0.03500   0.
    13.50000    -0.08500   0.
    14.50000    -0.13000   0.
    15.50000    -0.17000   0.
    16.50000    -0.17000   0.
    17.50000    -0.13000   0.
    18.50000    -0.08000   0.
    19.50000    -0.02500   0.
    20.50000    -0.03500   0.
    21.50000    -0.10000   0.
    22.50000    -0.10500   0.
    23.50000    -0.05500   0.
    24.50000     0.00000   0.
    25.50000     0.06000   0.
    26.50000     0.09000   0.
    27.50000     0.09000   0.
    28.50000     0.10500   0.
    29.50000     0.13500   0.
    30.50000     0.15500   0.
    31.50000     0.16000   0.
    32.50000     0.18500   0.
    33.50000     0.23500   0.
    34.50000     0.25000   0.
    35.50000     0.23000   0.
    36.50000     0.28500   0.
    37.49500     0.41500   0.
    38.49000     0.48000   0.
    39.49000     0.48000   0.
    40.49000     0.51500   0.
    41.49000     0.58500   0.
    42.48500     0.67500   0.
    43.48000     0.75500   0.
    44.48000     0.80500   0.
    45.48000     0.85500   0.
    46.48000     0.90500   0.
    47.48000     0.95500   0.
    48.48000     0.96000   0.
    49.48000     0.92000   0.
    50.48000     0.88000   0.
    51.48000     0.84000   0.
    52.48000     0.85000   0.
    53.48000     0.90500   0.
    54.48000     0.91000   0.
    55.48000     0.87000   0.
    56.48000     0.82500   0.
    57.48000     0.77500   0.
    58.48000     0.76500   0.
    59.48000     0.79000   0.
    60.48000     0.80000   0.
    61.48000     0.80000   0.
    62.48500     0.80500   0.
    63.49000     0.81500   0.
    64.49000     0.81500   0.
    65.49000     0.81000   0.
    66.49000     0.82000   0.
    67.49000     0.84000   0.
    68.49000     0.86000   0.
    69.49000     0.88500   0.
    70.49000     0.95000   0.
    71.48500     1.05000   0.
    72.48000     1.15000   0.
    73.48000     1.24500   0.
    74.48000     1.31500   0.
    75.47500     1.37000   0.
    76.47000     1.43000   0.
    77.47000     1.48500   0.
    78.47000     1.46000   0.
    79.47000     1.36500   0.
    80.47000     1.34500   0.
    81.47000     1.39500   0.
    82.47000     1.39500   0.
    83.47000     1.34500   0.
    84.47000     1.33500   0.
    85.47000     1.36000   0.
    86.47000     1.38500   0.
    87.47000     1.41000   0.
    88.47000     1.40500   0.
    89.47000     1.38000   0.
    90.47000     1.39500   0.
    91.47000     1.44500   0.
    92.47000     1.47500   0.
    93.47000     1.48500   0.
    94.47000     1.49500   0.
    95.47500     1.50000   0.
    96.48000     1.51000   0.
    97.48000     1.53000   0.
    98.48000     1.54000   0.
    99.48000     1.54000   0.
   100.48000     1.56000   0.
   101.48000     1.59500   0.
   102.48000     1.60500   0.
   103.48000     1.59500   0.
   104.48000     1.60500   0.
   105.48000     1.63000   0.
   106.48000     1.66000   0.
   107.48000     1.69500   0.
   108.48000     1.72000   0.
   109.48500     1.74500   0.
   110.49000     1.78500   0.
   111.49000     1.83000   0.
   112.49000     1.84500   0.
   113.49000     1.83500   0.
   114.49000     1.83500   0.
   115.49000     1.84500   0.
   116.49000     1.85500   0.
   117.49000     1.86000   0.
   118.49000     1.84500   0.
   119.49000     1.82000   0.
   120.49000     1.83500   0.
   121.49000     1.88500   0.
   122.49000     1.93500   0.
   123.49000     1.99500   0.
   124.49000     2.08500   0.
   125.48500     2.19500   0.
   126.48000     2.29500   0.
   127.68746     2.34000   0.
   128.67523     2.34000   0.
   130.05439     2.34000   0.
    -3.37000    -5.00000   0.
    -0.11000    -4.96000   0.
     3.15000    -4.87500   0.
     6.41500    -4.82500   0.
     9.68000    -4.90500   0.
    12.94000    -5.06000   0.
    16.20000    -5.12500   0.
    19.46000    -5.09500   0.
    22.72000    -5.04000   0.
    25.98000    -4.96000   0.
    29.24500    -4.88000   0.
    32.51000    -4.79500   0.
    35.77000    -4.66500   0.
    39.03000    -4.53000   0.
    42.29000    -4.34500   0.
    45.55000    -4.14000   0.
    48.81000    -4.09000   0.
    52.07000    -4.10500   0.
    55.33500    -4.14500   0.
    58.60000    -4.20000   0.
[...]
POINT_DATA      2188
CELL_DATA      4025
SCALARS Resistivity(ohm.m) double 1
LOOKUP_TABLE default
           431.77371           430.62707           438.78835           433.43768           433.96127           228.98513           433.25803           433.51769           433.53776           430.95928           370.36337           641.99969           433.40396           433.43175           438.05084           464.51026           434.83064           432.41516           366.51166           437.75855           432.82733           868.89288           433.77851           420.73397           432.93354           326.88254           453.45516           274.28630           465.80788           197.83089           222.95771           436.09739           435.30959           432.82828           343.50577           609.97220           628.26603           617.42086           225.00600           432.77501           407.85539           570.91775          4767.28715           750.25982           432.70516           433.36090           476.88423           351.50154           437.51030           374.46926           433.55568           434.35925           250.94666           239.22677           231.41271           589.05893           431.38898           632.26473           359.62982           625.33579           433.42607           432.42029           366.68944           592.10065           433.32384          2222.19583           279.46993           436.40982           648.96782           432.43655           456.67178           936.23566           362.68896           367.84047           493.44919           420.24609           439.62522           240.54623           918.79380           449.60046           745.18836           698.82513           432.41669           271.81992          1002.81388           432.45699           205.53085           433.40175           201.22297           280.82943           436.96550           434.00851           433.16882           432.67658           223.91410           454.04045           433.08584           869.81607           433.28132           432.62677           434.26805           443.19213           472.71647           484.14115           922.10003           667.86019           433.29172           434.03417           436.89976           438.69782           379.68771           435.75147           432.68339           479.79954           433.40352           832.83427          2289.36708           433.59090           433.06310           490.04129           352.92737           436.06013           434.52460           274.02648           227.33848           438.94144           689.77138           850.05031           646.93915           432.99038           612.37063           417.35361           448.06877           430.64555           232.33425           433.87994           438.68828           436.22935           447.25446           442.20900           777.41088           200.37604           304.78258           247.77616           187.40735           432.43531           299.05762           534.90385           212.45018           435.00743           563.15393           879.98980           442.76798           445.96598           433.85972           496.83278           435.84276           407.26853           948.50678           445.63788           403.98045           578.36947           432.95137           654.15299           868.28054           271.28518           435.18622           433.60227           432.81108           641.56088           737.94730           432.61468           432.46687          1147.79358           274.83200           372.68698           362.78895           402.32581           434.60294           432.99440           452.71755           433.52470           285.65978           577.29846           402.60140           905.54676           792.62746           356.01678           813.08688           884.08168           380.89251           629.09444           433.02271           451.76235           371.81337           456.74600           432.40761           432.65505           642.70191           433.97510           483.23217           196.00021           563.37605           441.77578          1071.77586           453.58243           175.87823           780.52921           439.92886           439.60815           454.80327           696.09014           714.24920           432.41764           432.82503           253.22619           443.98383           569.31403           553.43465           435.13041           481.24023           432.67781           365.29499           736.57356          1011.06510           435.83825           273.65445          1276.29607           451.71005           447.95225           437.29551           591.71918           433.11096           910.71883           457.09677           437.27465           529.96576           432.56529           432.41789           628.74304           432.83464           434.75110           472.81351           443.14801           318.24285           433.05488           458.57261           434.63556           436.99672           432.60582           387.76878           450.16215           364.25584           644.98319           670.41751           384.13828           433.00765          2669.10308           798.38327           438.22089           290.50241           613.27755           436.71669           432.42882           624.33334           432.52514           603.95478           435.68889           439.60140           456.20821           394.73499           487.24693           434.92080           666.09051           433.36428           467.51231           435.58981           547.74868           439.40947           434.05399           769.01011           433.68569           532.50365          5733.09221           448.17117           443.53153           660.29156           432.68883           432.77823           433.32386           372.55806           428.03666           796.07502           432.46243           498.75358           475.55287           462.55526           459.62818           479.79417           292.65751           285.68901           921.41886           436.67952           620.40601           418.37508           432.47784           665.43653           490.98252           384.55065           436.56034           907.50679           486.48537           432.61269           556.47227           459.73158           425.91597           485.84364           226.44755           436.09992           844.91214           226.80698           432.47151           432.62432           339.18458           434.03452           436.06241           255.73079           433.15776           449.30863           433.09328           259.81080           676.18570           285.87745           891.99618           193.28686           433.24410           445.16283           432.44087           432.83078           432.65117           838.78467           432.47513           432.46965           434.88139           774.58088           432.48294           365.65518           177.15205           350.19736           433.14750           254.06562           440.52602           432.58632           453.91089           436.58895           433.19039           432.54367           432.54401           790.67412           441.65794           239.27801           443.33418           469.22001           433.18710           506.73114           493.63052           435.10933           397.08723           433.63159           470.07259           782.12913           434.34107           305.44206           590.98651           909.22034           231.32783           433.18102           283.37219           426.96275           625.58643           622.47853           432.75190           429.80085           464.64058           432.99056           270.99251           719.56582           432.79617           443.27659          6437.65115           784.73714           290.77083           433.26550           648.92949           394.04611           432.41523           338.18835           444.49905           576.32752           432.90089           373.21379           447.18706           175.64383           256.76862           630.46247           491.94185           433.20982           211.03235           433.03295           433.19866           494.88295           433.13339           169.83436           433.52560           271.95012           432.43067           687.41018           508.14611           438.91847           521.24697           434.29741           433.69386           640.80950           259.01164           434.18111           442.25597           652.06044           462.03010           414.24797           728.73288           432.49152           402.73289           478.21608           464.00725           433.55924           691.10769           433.53130          1059.03766           267.11626           564.84384           489.35011           433.65546           412.56725           445.30089           434.37304           451.97851           446.42462           416.93002           407.88577           434.46778           438.98487           276.79880           194.05742           433.39378           437.30742           432.78016           198.93418           956.99495           434.16913           602.07561           543.57752           484.11253           432.98903           548.85688           607.04686           179.57729           298.46309           433.09033           170.27519           325.37549           448.94971           211.18867           432.63218           371.56829           502.18721           699.89676           441.58486           555.33526           430.60669           435.00871           716.10670           599.00076           234.24201           434.53456           223.43104           521.06991           432.49411           433.66976           537.10665           973.15062           649.96033           432.87122           432.66310           475.53158           362.27695           706.11535           650.15148           815.59975           432.71247           432.38124           434.05946           395.62563           434.34276           716.08326           432.43522           430.53742           433.41729           441.30913           432.49814           433.24100           433.15588           432.38937           432.50674           432.54932           432.41621           261.16519           371.48999           461.10251           172.94964           459.73723           447.30497           379.49045           432.47163           432.42239           452.19866           257.12979           432.46187           432.99192           329.48277           435.18032           432.57416           408.13863          1033.33074           456.83818           432.34780           678.54824           463.56631           434.53683           432.57202           432.48963           324.67146           205.03771           337.06801           280.93217           345.35758           454.24010           435.57736           433.59503           446.61421           211.37180           393.38323           443.40486           571.74153           434.08435           551.71316           432.44101           442.19556           205.80057           709.62659           161.91990           435.31276           434.48366           203.54156           435.44669           342.87746           438.42750           832.96602          1159.55693           416.43723           433.07321           432.47780           220.83840           432.69087           488.07944           249.88819           450.32562           434.31209           314.58499           433.04816           432.73901           533.00669           441.03683           454.21712           432.41835           432.39635           474.80175           475.22419           432.45824           432.44604           432.42239           662.90844           753.17635          1175.71637          1078.94504          1077.93919          1125.25088           433.98472           419.67097           433.84375           432.43378           433.27789           473.06738           432.82903           432.50876           432.87930           421.85051           224.60868           429.94928           432.49002           432.40584           432.34022           390.53003           432.35384           422.39457           967.84468           432.44764           433.30315           433.22743           433.71955           594.20526           440.68746           250.42934           432.60631           432.33146           433.20017           486.74017          1107.65158           828.29792           432.87438           883.64055           312.82997           432.36247           703.71963           850.11252           482.62319           432.38045           432.41180           432.92386           433.61548           432.49457           432.51916           432.38381           318.83529           298.18223           435.24530           613.84448           351.53124           301.01719           622.98394          1979.75038           432.34231           314.44392           443.34461           445.48707           768.47167           432.67514           435.57321           278.44412           432.62151           285.88782           368.83420           601.27757           325.16975           475.82831           432.51699           460.50997           439.80472           432.39985           432.40277           265.09596           421.83737           454.74319           432.41192           439.39890           432.45180           303.49056           450.69344           432.42614           432.37100           432.41846           666.45367           437.10372           505.43690           433.08273           557.92478           628.21952           533.48811           529.86379           432.42220           724.96843           432.96824           762.04701           646.31304           451.07961           435.72455           432.64078           432.69911           432.34946           432.67299           432.87320           583.79864           648.31351           894.34253           848.54763           164.36812           433.66519           432.48903           432.63934           432.61447           237.34107           432.94080           357.29003           437.84961           432.92954           338.72295           432.52171           195.89450           712.11583           597.79764           513.04147           412.56775           426.45833           773.24754           433.43666           166.89794           432.57821           432.39865           432.41517           460.50946           432.93624           432.37647           433.09471           441.41003           435.86463           564.72441          2629.45643           427.74300           432.53616           436.28052           433.37076           689.02170           435.38106           451.09001           397.01927           432.41310           588.08926           448.14540           433.41147           445.89979           435.74820           432.90156           510.62864           845.41824           432.84406           429.24395           442.19661           436.56561           279.81132           432.39414           432.20682           821.06029           432.73703           436.11645           433.19077           436.20107           437.33755           424.55838           433.24787           592.48888           435.00202           434.06471           840.66725         24187.03779           432.99159           151.78947           436.18144           741.10775           397.79462           825.66567           718.77223           555.35921           386.46775           434.06653           494.86188           432.42750           432.49710           241.44910           432.94961           303.73766           423.50678           338.99841           433.37631           466.14913           432.58734           542.47694           468.91384           432.73994           294.76445           303.52125           516.30821           434.04824           440.63008           376.93095           433.23063           709.50045           487.85988           459.47274           431.07916           434.89243           284.51251           432.61464           326.39746           446.80357           439.32953           432.83834           529.38389           432.49066           441.27643           433.38761           432.52284           303.10004           432.47275           359.50891           315.69367           485.98129           661.69311           432.41376           433.73367           814.56719           445.59379           432.65292           404.95270           436.75479           298.37635           432.92609           390.97580           274.31913           432.65350           812.00718           432.49073           195.36051           682.14753           438.71069           432.70297           438.67026           262.63797           433.73556           432.95987           246.21044           432.64198           303.38656           447.58317           662.01930           432.41487           432.59733           433.55249           934.70810           444.07788           733.34456           489.17263           384.02180           433.53634           473.62766           363.59333           455.20278           433.35211           713.14807           433.71758           445.81231           675.96790           307.95502           525.79548           432.35224           432.44581           432.92248           439.40710           481.36130           435.95972           806.53006           438.34051           439.10672           432.45506           349.21139           326.30101           432.39128           435.47594           923.58918           432.40882           440.16230           434.41070           432.48826           432.41586           435.56787           440.30510           729.43556           374.49996           434.28629           467.98746           288.86418           287.42886           491.46227           432.68369           427.97724           646.86131           433.34721           598.40328           432.38092           466.96149           432.48086           433.58061          1154.47747           432.33526           531.70598           425.49244           432.53821           262.16874           432.89137           432.73297           555.71400           432.97142           433.32026           433.21966           439.04172           498.93718           761.63078           432.55261           640.68199           439.45290          1182.23668          1179.54569          1145.06648           501.71235           759.63767           440.31049           432.35640           433.04248           590.66261           432.89439           503.81815           433.78786           432.54854           437.01695           524.00906           431.64684           432.73071           432.52889           327.51346           433.31965          1016.59403           437.91411           432.78309           432.64520           432.88158           433.23905           435.30511           432.47241           541.37696           667.47394           432.65551           432.38152           656.18464           432.94275           792.08298           481.80854           432.38695           432.39427           431.73230           432.74364           209.28061           374.05169           433.04776           442.60343           433.78130           642.25177           430.26776           433.71338           433.02800           436.49307           475.94226           432.39823           464.79283           433.63255           888.39907           432.59843           697.67475           232.30960           215.31138           220.32600           248.10975           432.41683           623.67407           337.62498           607.34280           432.40525           248.87915  