# vtk DataFile Version 3.0
Output from R2
ASCII
DATASET UNSTRUCTURED_GRID
POINTS       2188 double
    -5.00000     0.00000   0.
     0.00000     0.00000   0.
     1.00000     0.05000   0.
     2.00000     0.10000   0.
     3.00000     0.12000   0.
     4.00000     0.14000   0.
     5.00000     0.18000   0.
     6.00000     0.22000   0.
     7.00000     0.20000   0.
     8.00000     0.18000   0.
     9.00000     0.11000   0.
    10.00000     0.05000   0.
    11.00000     0.02000   0.
    12.00000    -0.01000   0.
    13.00000    -0.06000   0.
    14.00000    -0.11000   0.
    15.00000    -0.15000   0.
    16.00000    -0.19000   0.
    17.00000    -0.15000   0.
    18.00000    -0.11000   0.
    19.00000    -0.05000   0.
    20.00000     0.00000   0.
    21.00000    -0.07000   0.
    22.00000    -0.13000   0.
    23.00000    -0.08000   0.
    24.00000    -0.03000   0.
    25.00000     0.03000   0.
    26.00000     0.09000   0.
    27.00000     0.09000   0.
    28.00000     0.09000   0.
    29.00000     0.12000   0.
    30.00000     0.15000   0.
    31.00000     0.16000   0.
    32.00000     0.16000   0.
    33.00000     0.21000   0.
    34.00000     0.26000   0.
    35.00000     0.24000   0.
    36.00000     0.22000   0.
    37.00000     0.35000   0.
    37.99000     0.48000   0.
    38.99000     0.48000   0.
    39.99000     0.48000   0.
    40.99000     0.55000   0.
    41.99000     0.62000   0.
    42.98000     0.73000   0.
    43.98000     0.78000   0.
    44.98000     0.83000   0.
    45.98000     0.88000   0.
    46.98000     0.93000   0.
    47.98000     0.98000   0.
    48.98000     0.94000   0.
    49.98000     0.90000   0.
    50.98000     0.86000   0.
    51.98000     0.82000   0.
    52.98000     0.88000   0.
    53.98000     0.93000   0.
    54.98000     0.89000   0.
    55.98000     0.85000   0.
    56.98000     0.80000   0.
    57.98000     0.75000   0.
    58.98000     0.78000   0.
    59.98000     0.80000   0.
    60.98000     0.80000   0.
    61.98000     0.80000   0.
    62.99000     0.81000   0.
    63.99000     0.82000   0.
    64.99000     0.81000   0.
    65.99000     0.81000   0.
    66.99000     0.83000   0.
    67.99000     0.85000   0.
    68.99000     0.87000   0.
    69.99000     0.90000   0.
    70.99000     1.00000   0.
    71.98000     1.10000   0.
    72.98000     1.20000   0.
    73.98000     1.29000   0.
    74.98000     1.34000   0.
    75.97000     1.40000   0.
    76.97000     1.46000   0.
    77.97000     1.51000   0.
    78.97000     1.41000   0.
    79.97000     1.32000   0.
    80.97000     1.37000   0.
    81.97000     1.42000   0.
    82.97000     1.37000   0.
    83.97000     1.32000   0.
    84.97000     1.35000   0.
    85.97000     1.37000   0.
    86.97000     1.40000   0.
    87.97000     1.42000   0.
    88.97000     1.39000   0.
    89.97000     1.37000   0.
    90.97000     1.42000   0.
    91.97000     1.47000   0.
    92.97000     1.48000   0.
    93.97000     1.49000   0.
    94.97000     1.50000   0.
    95.98000     1.50000   0.
    96.98000     1.52000   0.
    97.98000     1.54000   0.
    98.98000     1.54000   0.
    99.98000     1.54000   0.
   100.98000     1.58000   0.
   101.98000     1.61000   0.
   102.98000     1.60000   0.
   103.98000     1.59000   0.
   104.98000     1.62000   0.
   105.98000     1.64000   0.
   106.98000     1.68000   0.
   107.98000     1.71000   0.
   108.98000     1.73000   0.
   109.99000     1.76000   0.
   110.99000     1.81000   0.
   111.99000     1.85000   0.
   112.99000     1.84000   0.
   113.99000     1.83000   0.
   114.99000     1.84000   0.
   115.99000     1.85000   0.
   116.99000     1.86000   0.
   117.99000     1.86000   0.
   118.99000     1.83000   0.
   119.99000     1.81000   0.
   120.99000     1.86000   0.
   121.99000     1.91000   0.
   122.99000     1.96000   0.
   123.99000     2.03000   0.
   124.99000     2.14000   0.
   125.98000     2.25000   0.
   126.98000     2.34000   0.
   131.98000     2.34000   0.
    -5.00000    -5.00000   0.
    -1.74000    -5.00000   0.
     1.52000    -4.92000   0.
     4.78000    -4.83000   0.
     8.05000    -4.82000   0.
    11.31000    -4.99000   0.
    14.57000    -5.13000   0.
    17.83000    -5.12000   0.
    21.09000    -5.07000   0.
    24.35000    -5.01000   0.
    27.61000    -4.91000   0.
    30.88000    -4.85000   0.
    34.14000    -4.74000   0.
    37.40000    -4.59000   0.
    40.66000    -4.47000   0.
    43.92000    -4.22000   0.
    47.18000    -4.06000   0.
    50.44000    -4.12000   0.
    53.70000    -4.09000   0.
    56.97000    -4.20000   0.
    60.23000    -4.20000   0.
    63.49000    -4.18000   0.
    66.75000    -4.17000   0.
    70.01000    -4.10000   0.
    73.27000    -3.77000   0.
    76.53000    -3.57000   0.
    79.79000    -3.66000   0.
    83.06000    -3.64000   0.
    86.32000    -3.62000   0.
    89.58000    -3.62000   0.
    92.84000    -3.52000   0.
    96.10000    -3.50000   0.
    99.36000    -3.46000   0.
   102.62000    -3.40000   0.
   105.89000    -3.36000   0.
   109.15000    -3.26000   0.
   112.41000    -3.16000   0.
   115.67000    -3.15000   0.
   118.93000    -3.17000   0.
   122.19000    -3.08000   0.
   125.45000    -2.81000   0.
   128.71000    -2.66000   0.
   131.98000    -2.66000   0.
  -639.88000     0.00000   0.
  -639.88000  -385.93000   0.
   766.86000     2.34000   0.
   766.86000  -385.93000   0.
    -3.07439     0.00000   0.
    -1.69523     0.00000   0.
    -0.70746     0.00000   0.
     0.50000     0.02500   0.
     1.50000     0.07500   0.
     2.50000     0.11000   0.
     3.50000     0.13000   0.
     4.50000     0.16000   0.
     5.50000     0.20000   0.
     6.50000     0.21000   0.
     7.50000     0.19000   0.
     8.50000     0.14500   0.
     9.50000     0.08000   0.
    10.50000     0.03500   0.
    11.50000     0.00500   0.
    12.50000    -0.03500   0.
    13.50000    -0.08500   0.
    14.50000    -0.13000   0.
    15.50000    -0.17000   0.
    16.50000    -0.17000   0.
    17.50000    -0.13000   0.
    18.50000    -0.08000   0.
    19.50000    -0.02500   0.
    20.50000    -0.03500   0.
    21.50000    -0.10000   0.
    22.50000    -0.10500   0.
    23.50000    -0.05500   0.
    24.50000     0.00000   0.
    25.50000     0.06000   0.
    26.50000     0.09000   0.
    27.50000     0.09000   0.
    28.50000     0.10500   0.
    29.50000     0.13500   0.
    30.50000     0.15500   0.
    31.50000     0.16000   0.
    32.50000     0.18500   0.
    33.50000     0.23500   0.
    34.50000     0.25000   0.
    35.50000     0.23000   0.
    36.50000     0.28500   0.
    37.49500     0.41500   0.
    38.49000     0.48000   0.
    39.49000     0.48000   0.
    40.49000     0.51500   0.
    41.49000     0.58500   0.
    42.48500     0.67500   0.
    43.48000     0.75500   0.
    44.48000     0.80500   0.
    45.48000     0.85500   0.
    46.48000     0.90500   0.
    47.48000     0.95500   0.
    48.48000     0.96000   0.
    49.48000     0.92000   0.
    50.48000     0.88000   0.
    51.48000     0.84000   0.
    52.48000     0.85000   0.
    53.48000     0.90500   0.
    54.48000     0.91000   0.
    55.48000     0.87000   0.
    56.48000     0.82500   0.
    57.48000     0.77500   0.
    58.48000     0.76500   0.
    59.48000     0.79000   0.
    60.48000     0.80000   0.
    61.48000     0.80000   0.
    62.48500     0.80500   0.
    63.49000     0.81500   0.
    64.49000     0.81500   0.
    65.49000     0.81000   0.
    66.49000     0.82000   0.
    67.49000     0.84000   0.
    68.49000     0.86000   0.
    69.49000     0.88500   0.
    70.49000     0.95000   0.
    71.48500     1.05000   0.
    72.48000     1.15000   0.
    73.48000     1.24500   0.
    74.48000     1.31500   0.
    75.47500     1.37000   0.
    76.47000     1.43000   0.
    77.47000     1.48500   0.
    78.47000     1.46000   0.
    79.47000     1.36500   0.
    80.47000     1.34500   0.
    81.47000     1.39500   0.
    82.47000     1.39500   0.
    83.47000     1.34500   0.
    84.47000     1.33500   0.
    85.47000     1.36000   0.
    86.47000     1.38500   0.
    87.47000     1.41000   0.
    88.47000     1.40500   0.
    89.47000     1.38000   0.
    90.47000     1.39500   0.
    91.47000     1.44500   0.
    92.47000     1.47500   0.
    93.47000     1.48500   0.
    94.47000     1.49500   0.
    95.47500     1.50000   0.
    96.48000     1.51000   0.
    97.48000     1.53000   0.
    98.48000     1.54000   0.
    99.48000     1.54000   0.
   100.48000     1.56000   0.
   101.48000     1.59500   0.
   102.48000     1.60500   0.
   103.48000     1.59500   0.
   104.48000     1.60500   0.
   105.48000     1.63000   0.
   106.48000     1.66000   0.
   107.48000     1.69500   0.
   108.48000     1.72000   0.
   109.48500     1.74500   0.
   110.49000     1.78500   0.
   111.49000     1.83000   0.
   112.49000     1.84500   0.
   113.49000     1.83500   0.
   114.49000     1.83500   0.
   115.49000     1.84500   0.
   116.49000     1.85500   0.
   117.49000     1.86000   0.
   118.49000     1.84500   0.
   119.49000     1.82000   0.
   120.49000     1.83500   0.
   121.49000     1.88500   0.
   122.49000     1.93500   0.
   123.49000     1.99500   0.
   124.49000     2.08500   0.
   125.48500     2.19500   0.
   126.48000     2.29500   0.
   127.68746     2.34000   0.
   128.67523     2.34000   0.
   130.05439     2.34000   0.
    -3.37000    -5.00000   0.
    -0.11000    -4.96000   0.
     3.15000    -4.87500   0.
     6.41500    -4.82500   0.
     9.68000    -4.90500   0.
    12.94000    -5.06000   0.
    16.20000    -5.12500   0.
    19.46000    -5.09500   0.
    22.72000    -5.04000   0.
    25.98000    -4.96000   0.
    29.24500    -4.88000   0.
    32.51000    -4.79500   0.
    35.77000    -4.66500   0.
    39.03000    -4.53000   0.
    42.29000    -4.34500   0.
    45.55000    -4.14000   0.
    48.81000    -4.09000   0.
    52.07000    -4.10500   0.
    55.33500    -4.14500   0.
    58.60000    -4.20000   0.
[...]
POINT_DATA      2188
CELL_DATA      4025
SCALARS Resistivity(ohm.m) double 1
LOOKUP_TABLE default
           487.45799           458.84972          2015.07943          1094.31219          1461.51667           318.91788           865.58917           860.45939           696.57896           468.92658           305.84373           863.48780          1250.57529           667.78356           648.95818          2254.13331          1021.96591           729.75050           307.86330           605.52393           694.53939           409.71827           482.73115           399.04212           854.69178           395.59738          3343.76282           262.23659          2552.75582           187.44365           312.06859          1628.65463           982.08093          1434.80963           259.64556           351.05714           881.19200          1023.46522           231.34106           696.66337           359.90642          1686.09953         42082.43757           607.03182           773.17951          1196.90429          1077.87384           262.98132          1515.42429           321.15170           678.03807           471.87091           376.24649           142.91233           332.96113          1001.89576           478.32579           384.93076           323.86288           470.63326           938.71217           740.17410           407.90215           334.42563           706.70175         27750.53345           155.18299          2084.25541           879.68778           728.93439          2616.93419           720.31014           353.44930           323.05788           294.66031           387.65180           520.79393           338.30486           645.53406          3112.24234           404.97322           535.68150           738.15342           290.80980           682.51834           725.72367           189.63848           566.09074           215.16861           314.10859           330.40193           770.17754          1627.19853           707.47832           190.70227          1489.55964           898.94803           474.89518          1090.90096           455.08873          1008.73902           620.03289          1253.73520          1208.79541           909.77394           378.88269          1641.83403          1412.16286          1613.14177           582.15840           318.10836          2025.08609           784.35973           370.63865           990.69987           765.94465         13480.99435           582.50267           836.84102           417.05486           414.25248          1394.67643          1863.60326           273.33680           196.07628          1920.43061           412.44618           455.53966           930.37084          1571.52272           943.05044           322.24363          1186.29957           464.43030           181.61210          1157.38508          1157.58536          1205.03292          1026.84617          1103.01590           447.46807           208.49939           212.85811           216.75495           181.42725           728.20000           444.77578          1845.59135           192.30357          1528.26973          1287.12271           630.10579           699.82000           613.84075          1738.36333           434.75245          1323.22438           373.56432           592.25773          2580.36348           360.05634          1092.72420          1431.07007           504.89697           765.16539           269.81056          1077.26794          1045.61754          1389.34481           995.65003           458.68757           723.31196           743.82447           714.40754           281.60560           328.31109           278.54946           501.03552          1230.63369          1297.64416          1410.28306          1148.78974           211.58276           606.56551           334.18129           477.68987           818.80509           348.18258           651.21787           530.61083           269.93097          1020.24368          1564.95340          2351.31705           358.54245          3355.71186           730.86652           717.00820         10522.20882          1054.34523           462.95447           285.57377           491.34560           665.09048           668.17858           561.57715           205.79461           405.89555          1224.82377          1292.19477          2820.26216           754.76972           529.88959          1488.89985           832.08997           197.48204          1171.58708          1085.27502           273.75472          1185.66971          2192.99680          1516.61533           299.42387           498.08060           652.64680           649.67757           431.03966          7872.56352          2162.93505           573.84347          2011.71553           641.95773          1387.56888           573.73619           956.69049          1436.98038           470.00635           766.85861           735.87194           971.23374          1527.10973          1123.83350          1317.17694           814.64863           389.25395          1315.48875          3111.14130           781.71096          1149.50182          1455.88799           297.37713          1259.38064           340.66608           988.22239           463.25621           500.97838           691.08613         38864.25566           903.30272          1325.49276           235.55545           588.88911           665.80481          1484.37195           927.11072           762.13578          1028.22290          1846.96498          1101.16035          2117.76850           285.10936          5274.53053          1917.80719           799.56696          1407.22883           535.41024          1959.92188          1440.88956           677.61049          1778.43286          4797.75302           775.05010           615.62351         28531.49260           963.88453          1039.27966           707.00718           709.99136          1372.54878          1605.71858           318.78138           441.28821           727.54078           746.30838          1129.75909          1134.61754           374.62083          1001.71046           450.86245           261.38838           304.79244           608.80556          1283.44169           553.48886           497.47830          1466.82566           408.24273           692.55163           319.33460           952.51712          6365.80030          4424.55460           777.85420          1223.59674           503.52264           426.00687          1159.47993           183.03761           991.21625           722.38368           291.72848          1462.18086          1507.43981           334.43410          1214.52686          1802.24129           187.65744           644.88002          2753.27289          1576.65269           194.16181           699.33219           281.65714           703.91046           195.13217           990.57885           926.10009          1503.57639          1517.24915          1425.32003           566.33325           725.86078          1506.57024          1293.98898           551.56173           724.59252           301.71663           182.11812           250.99583          1562.51023           286.48191          2117.78824          1443.24001           520.44216          1541.49426           651.81535          1502.73671           718.51565         14842.19382           744.80322           335.87339           453.26350           690.43991           702.09618           495.78786           455.10423           668.31676           263.31037          1470.07616          2115.44434           594.45803           321.27283           305.67911          1201.89583          1847.74893           235.57326           523.30963           263.70338           428.07016           492.61055           947.50758          1416.35205           264.06824          1164.73125          1589.28160           242.67556           513.40802           505.91601          2145.72130         54089.76770           818.08895           250.78041          1570.99569           481.26078           293.18318           734.59110           353.79837          2394.22521          8610.70923           700.10971           313.45152          1540.02327           181.36697           212.60105           906.86082           414.82435          1141.06196           283.79823           656.02391          1193.43807           424.70041           943.68562           193.93982           594.29920           287.22592           745.00142           830.98757           308.42036           523.32648          2120.87532          1503.91282           927.01106           531.59418           187.90394           790.53656          1406.83464           879.53611          2700.43789           404.39362           482.14434          1466.45583           333.72431           660.37425          1233.43982           628.65510           895.32832           608.56241          3196.87165           260.78842           674.22151           465.23407           826.10915           351.45665          1620.27448          1330.36270           940.20138          2030.14089           385.39142           342.33553          1814.81371          1570.71734           292.46988           186.31209           603.48260          1824.43002          1457.27302           297.97624           652.20871          1111.04210           971.04129           509.53874           405.70933           710.72778          4886.48996          9059.79070           188.83504           378.85774          1602.76202           287.41222           348.48192           530.02229           224.45786          1416.55992           332.08830           502.65044           934.55067           549.05988           387.66375           465.79807           934.89680           864.67939           605.08374           246.49318           661.07634           246.94001          1569.67291           508.53902           543.45595           422.46443         19493.10167          9683.28608          1334.61711           796.14732           412.65110           317.25240           531.24007           485.44984           584.37916           701.92427          1498.62212           952.55655           300.42639           924.19496           922.68583           728.02098           344.61578           617.70105          1721.83530          1503.62469          1039.57164           689.00439           729.16733           720.25710           726.57837           736.92865           313.70300           349.74301           389.00835           284.57787          1500.74540           492.13150           315.36592           753.07730          1500.61291           566.99968           278.99524           727.17565          1399.22142           290.12853          1584.03192           716.09993           341.68292          5769.12500          1282.42289          1490.46467           534.92229          3179.84391          1389.07420          1430.20228           758.92560           394.02910           199.81613           177.05719           351.57124           171.11014           677.79426          1497.92947          1712.53389          2294.84362           184.20195           256.55436           761.22510           561.19632           675.46828           531.86345          1499.65307           937.41715           217.22192           443.26700           187.26032           510.90483           616.77044           191.48694           616.08329           299.81061          1403.46731           819.97307           791.66099           361.78454          1244.49374           724.82142           229.59480          1394.40561           433.47260           275.58275          1079.28524           639.86820           238.79118          1540.07037          1505.19778           557.34266           583.14191           783.52076          1481.59248           731.02264          4746.46530          4208.31850           727.69139          1466.62247           742.27568           498.87179           733.07519           767.05448           647.68405           698.55121           716.28147          1724.74960           372.88557          1309.81024           743.80173           550.46477           237.13061           700.85309           720.99162           708.50369           304.26959           227.88090           403.41335          1491.88993           731.83287          1488.18011           316.07820          1492.40825           385.14844           555.21777           749.01125           666.80017           900.60487           890.87676           669.18981           843.90571           282.61468           782.46887          1495.86209          1299.13900          5072.31712          2993.17795           696.59607           686.21221           503.59005           295.22602          1485.77158           414.68748           517.51103           574.44242           729.46209           731.85171          1379.48857           636.81883           722.76126          1510.84234           730.38953           228.27120           229.15328          1737.02435           701.09444           283.47575           428.22599           633.68758          9736.52448          1485.83397           243.28421          2032.29436           841.01433           530.96918          1526.37670           900.18015           204.61760          1520.73131           236.79320           260.23195          1006.01452           347.73528           600.58148           764.84730           661.55093          2196.17560          1478.01333          1473.34206           353.20157           384.20334          3621.94537           738.44353           775.25007          1492.25110           287.48720          1129.90535          1471.01970          1481.20298           739.61163           596.47440          2084.03890          6086.41907           646.98004          4172.35536           552.61736           518.93247           494.69094          1496.52809           540.02740          1546.78502           675.10145           978.98324           728.25236           593.69474           726.44096          1462.19793          1483.51512           705.68209          1552.55822          1049.61104           889.26271          1701.51543           420.99277           177.68064           554.67760          1453.06179           714.58181           712.86608           250.54643           684.22653           280.11218           720.34029          1577.54859           372.42695          1443.96693           201.71097           361.17408           950.37024           581.91113           351.08021           411.79102           822.57053           592.10324           176.79552          1515.10421           735.27813           732.66261           617.94740           672.35911          1479.54141          1646.09790          1328.37593           448.16601          1084.64552         21682.80529           433.27993          1497.05839           914.25460          1692.34076           776.16099          1426.48317          3374.75149           327.61089           731.13239           784.47387           430.11022          1681.34547           878.34000           346.11593          1540.06968           254.36728           421.44684           686.56613           440.36287          2643.53964           587.45317           215.66592          1482.64227           500.07065           390.68774           697.63862           699.83357           552.64146          1088.36278          2231.53668           398.08842           624.15206           356.28262          1981.37254          1820.87487           635.46295         81542.50981           665.17504           258.44436          1938.36192           669.89329           288.47430           562.99051           534.82802           561.62045           335.92090           886.37514          1848.99844           730.76069           722.06934           242.95638          1591.74011           219.35736           382.79057           311.73509          1447.69767          1042.53525          1513.67777          1154.29421          3506.10629          1533.99358           245.75579           260.34013           617.68098           695.63642          1925.91721           281.78869           721.63165           597.81065          4037.38548          3932.70036           470.17442           694.89676           226.51808           733.47034           299.69816          1311.31647          1653.68256           527.19644           363.09139          1486.23636           990.05255           578.78028           731.68637           286.40191           730.66190           281.74452           192.49301           822.17594          4935.64257           731.98284          1257.73233           877.10485          1443.78489          1503.00199           331.52385          1040.90473           277.70590           721.71235           322.23201           331.55313          1518.27660          2016.04516           721.79111           199.27950           962.73084          2289.23763           701.72559           380.61049           394.77332           670.10274          1608.59696           330.38198           709.69277           332.32804           649.64551           595.85122           734.51757          1489.31475          1718.24350           759.68435          2780.08189          1898.65959          1054.16834           311.47368          1342.85401           468.21263           293.08929           609.63956           615.05637           700.73873          1750.27158          2956.54970           554.72883           295.23131          1287.52641          1490.70442           732.16323          1563.48164          2409.16930           771.08325          2093.84725           751.09724          2308.93619           354.12737          1482.63637           275.27313           287.65842          1480.60492          2032.90459           668.61351           734.45161           897.59767          1895.03065           726.74234           734.12341           853.28569          1450.87768           373.88757           267.14867          1859.59081           584.01749           236.31117           338.55515           739.68974           754.03767           426.14088           762.55103           629.64899           987.02513          1490.10629           581.86369           733.16159           757.00573           810.88114          1495.08780          7011.19176           412.85920          1484.05343           256.34334           679.60975          1495.56465           559.61493          1535.46227          1545.29709          1666.66863           821.43034           544.87020         12504.19415           735.39709           810.85695           481.00214           793.45773           772.46705           728.14164          1524.35076           937.22311          2364.73017          1495.28733          1522.45072           985.52031          1519.63064          4136.57129          1572.49186           717.01167           434.54834           312.54080           332.83971           810.05242          1476.55410           338.83063           759.71327           628.76450           761.32249           693.59442          1477.69178          1506.35854           795.06475          1689.73041           725.24585           654.38350           564.12498          1487.46944          1476.37525           330.38499          1560.45539           577.10790          1738.32315          1477.18407           736.87714           485.73614           707.99096           251.16598           379.30507           539.84144          1620.52392           587.45909           868.60274           455.16176           705.33412           727.73723           724.35770           857.64913           729.46455          1911.64414           613.92096           552.00592           514.84346           789.94477           298.79632           311.05391           313.06498           247.75046           732.65584          2155.46665           435.78605          4084.57473           736.77839           338.00518  