# vtk DataFile Version 3.0
Output from R2
ASCII
DATASET UNSTRUCTURED_GRID
POINTS       2188 double
    -5.00000     0.00000   0.
     0.00000     0.00000   0.
     1.00000     0.05000   0.
     2.00000     0.10000   0.
     3.00000     0.12000   0.
     4.00000     0.14000   0.
     5.00000     0.18000   0.
     6.00000     0.22000   0.
     7.00000     0.20000   0.
     8.00000     0.18000   0.
     9.00000     0.11000   0.
    10.00000     0.05000   0.
    11.00000     0.02000   0.
    12.00000    -0.01000   0.
    13.00000    -0.06000   0.
    14.00000    -0.11000   0.
    15.00000    -0.15000   0.
    16.00000    -0.19000   0.
    17.00000    -0.15000   0.
    18.00000    -0.11000   0.
    19.00000    -0.05000   0.
    20.00000     0.00000   0.
    21.00000    -0.07000   0.
    22.00000    -0.13000   0.
    23.00000    -0.08000   0.
    24.00000    -0.03000   0.
    25.00000     0.03000   0.
    26.00000     0.09000   0.
    27.00000     0.09000   0.
    28.00000     0.09000   0.
    29.00000     0.12000   0.
    30.00000     0.15000   0.
    31.00000     0.16000   0.
    32.00000     0.16000   0.
    33.00000     0.21000   0.
    34.00000     0.26000   0.
    35.00000     0.24000   0.
    36.00000     0.22000   0.
    37.00000     0.35000   0.
    37.99000     0.48000   0.
    38.99000     0.48000   0.
    39.99000     0.48000   0.
    40.99000     0.55000   0.
    41.99000     0.62000   0.
    42.98000     0.73000   0.
    43.98000     0.78000   0.
    44.98000     0.83000   0.
    45.98000     0.88000   0.
    46.98000     0.93000   0.
    47.98000     0.98000   0.
    48.98000     0.94000   0.
    49.98000     0.90000   0.
    50.98000     0.86000   0.
    51.98000     0.82000   0.
    52.98000     0.88000   0.
    53.98000     0.93000   0.
    54.98000     0.89000   0.
    55.98000     0.85000   0.
    56.98000     0.80000   0.
    57.98000     0.75000   0.
    58.98000     0.78000   0.
    59.98000     0.80000   0.
    60.98000     0.80000   0.
    61.98000     0.80000   0.
    62.99000     0.81000   0.
    63.99000     0.82000   0.
    64.99000     0.81000   0.
    65.99000     0.81000   0.
    66.99000     0.83000   0.
    67.99000     0.85000   0.
    68.99000     0.87000   0.
    69.99000     0.90000   0.
    70.99000     1.00000   0.
    71.98000     1.10000   0.
    72.98000     1.20000   0.
    73.98000     1.29000   0.
    74.98000     1.34000   0.
    75.97000     1.40000   0.
    76.97000     1.46000   0.
    77.97000     1.51000   0.
    78.97000     1.41000   0.
    79.97000     1.32000   0.
    80.97000     1.37000   0.
    81.97000     1.42000   0.
    82.97000     1.37000   0.
    83.97000     1.32000   0.
    84.97000     1.35000   0.
    85.97000     1.37000   0.
    86.97000     1.40000   0.
    87.97000     1.42000   0.
    88.97000     1.39000   0.
    89.97000     1.37000   0.
    90.97000     1.42000   0.
    91.97000     1.47000   0.
    92.97000     1.48000   0.
    93.97000     1.49000   0.
    94.97000     1.50000   0.
    95.98000     1.50000   0.
    96.98000     1.52000   0.
    97.98000     1.54000   0.
    98.98000     1.54000   0.
    99.98000     1.54000   0.
   100.98000     1.58000   0.
   101.98000     1.61000   0.
   102.98000     1.60000   0.
   103.98000     1.59000   0.
   104.98000     1.62000   0.
   105.98000     1.64000   0.
   106.98000     1.68000   0.
   107.98000     1.71000   0.
   108.98000     1.73000   0.
   109.99000     1.76000   0.
   110.99000     1.81000   0.
   111.99000     1.85000   0.
   112.99000     1.84000   0.
   113.99000     1.83000   0.
   114.99000     1.84000   0.
   115.99000     1.85000   0.
   116.99000     1.86000   0.
   117.99000     1.86000   0.
   118.99000     1.83000   0.
   119.99000     1.81000   0.
   120.99000     1.86000   0.
   121.99000     1.91000   0.
   122.99000     1.96000   0.
   123.99000     2.03000   0.
   124.99000     2.14000   0.
   125.98000     2.25000   0.
   126.98000     2.34000   0.
   131.98000     2.34000   0.
    -5.00000    -5.00000   0.
    -1.74000    -5.00000   0.
     1.52000    -4.92000   0.
     4.78000    -4.83000   0.
     8.05000    -4.82000   0.
    11.31000    -4.99000   0.
    14.57000    -5.13000   0.
    17.83000    -5.12000   0.
    21.09000    -5.07000   0.
    24.35000    -5.01000   0.
    27.61000    -4.91000   0.
    30.88000    -4.85000   0.
    34.14000    -4.74000   0.
    37.40000    -4.59000   0.
    40.66000    -4.47000   0.
    43.92000    -4.22000   0.
    47.18000    -4.06000   0.
    50.44000    -4.12000   0.
    53.70000    -4.09000   0.
    56.97000    -4.20000   0.
    60.23000    -4.20000   0.
    63.49000    -4.18000   0.
    66.75000    -4.17000   0.
    70.01000    -4.10000   0.
    73.27000    -3.77000   0.
    76.53000    -3.57000   0.
    79.79000    -3.66000   0.
    83.06000    -3.64000   0.
    86.32000    -3.62000   0.
    89.58000    -3.62000   0.
    92.84000    -3.52000   0.
    96.10000    -3.50000   0.
    99.36000    -3.46000   0.
   102.62000    -3.40000   0.
   105.89000    -3.36000   0.
   109.15000    -3.26000   0.
   112.41000    -3.16000   0.
   115.67000    -3.15000   0.
   118.93000    -3.17000   0.
   122.19000    -3.08000   0.
   125.45000    -2.81000   0.
   128.71000    -2.66000   0.
   131.98000    -2.66000   0.
  -639.88000     0.00000   0.
  -639.88000  -385.93000   0.
   766.86000     2.34000   0.
   766.86000  -385.93000   0.
    -3.07439     0.00000   0.
    -1.69523     0.00000   0.
    -0.70746     0.00000   0.
     0.50000     0.02500   0.
     1.50000     0.07500   0.
     2.50000     0.11000   0.
     3.50000     0.13000   0.
     4.50000     0.16000   0.
     5.50000     0.20000   0.
     6.50000     0.21000   0.
     7.50000     0.19000   0.
     8.50000     0.14500   0.
     9.50000     0.08000   0.
    10.50000     0.03500   0.
    11.50000     0.00500   0.
    12.50000    -0.03500   0.
    13.50000    -0.08500   0.
    14.50000    -0.13000   0.
    15.50000    -0.17000   0.
    16.50000    -0.17000   0.
    17.50000    -0.13000   0.
    18.50000    -0.08000   0.
    19.50000    -0.02500   0.
    20.50000    -0.03500   0.
    21.50000    -0.10000   0.
    22.50000    -0.10500   0.
    23.50000    -0.05500   0.
    24.50000     0.00000   0.
    25.50000     0.06000   0.
    26.50000     0.09000   0.
    27.50000     0.09000   0.
    28.50000     0.10500   0.
    29.50000     0.13500   0.
    30.50000     0.15500   0.
    31.50000     0.16000   0.
    32.50000     0.18500   0.
    33.50000     0.23500   0.
    34.50000     0.25000   0.
    35.50000     0.23000   0.
    36.50000     0.28500   0.
    37.49500     0.41500   0.
    38.49000     0.48000   0.
    39.49000     0.48000   0.
    40.49000     0.51500   0.
    41.49000     0.58500   0.
    42.48500     0.67500   0.
    43.48000     0.75500   0.
    44.48000     0.80500   0.
    45.48000     0.85500   0.
    46.48000     0.90500   0.
    47.48000     0.95500   0.
    48.48000     0.96000   0.
    49.48000     0.92000   0.
    50.48000     0.88000   0.
    51.48000     0.84000   0.
    52.48000     0.85000   0.
    53.48000     0.90500   0.
    54.48000     0.91000   0.
    55.48000     0.87000   0.
    56.48000     0.82500   0.
    57.48000     0.77500   0.
    58.48000     0.76500   0.
    59.48000     0.79000   0.
    60.48000     0.80000   0.
    61.48000     0.80000   0.
    62.48500     0.80500   0.
    63.49000     0.81500   0.
    64.49000     0.81500   0.
    65.49000     0.81000   0.
    66.49000     0.82000   0.
    67.49000     0.84000   0.
    68.49000     0.86000   0.
    69.49000     0.88500   0.
    70.49000     0.95000   0.
    71.48500     1.05000   0.
    72.48000     1.15000   0.
    73.48000     1.24500   0.
    74.48000     1.31500   0.
    75.47500     1.37000   0.
    76.47000     1.43000   0.
    77.47000     1.48500   0.
    78.47000     1.46000   0.
    79.47000     1.36500   0.
    80.47000     1.34500   0.
    81.47000     1.39500   0.
    82.47000     1.39500   0.
    83.47000     1.34500   0.
    84.47000     1.33500   0.
    85.47000     1.36000   0.
    86.47000     1.38500   0.
    87.47000     1.41000   0.
    88.47000     1.40500   0.
    89.47000     1.38000   0.
    90.47000     1.39500   0.
    91.47000     1.44500   0.
    92.47000     1.47500   0.
    93.47000     1.48500   0.
    94.47000     1.49500   0.
    95.47500     1.50000   0.
    96.48000     1.51000   0.
    97.48000     1.53000   0.
    98.48000     1.54000   0.
    99.48000     1.54000   0.
   100.48000     1.56000   0.
   101.48000     1.59500   0.
   102.48000     1.60500   0.
   103.48000     1.59500   0.
   104.48000     1.60500   0.
   105.48000     1.63000   0.
   106.48000     1.66000   0.
   107.48000     1.69500   0.
   108.48000     1.72000   0.
   109.48500     1.74500   0.
   110.49000     1.78500   0.
   111.49000     1.83000   0.
   112.49000     1.84500   0.
   113.49000     1.83500   0.
   114.49000     1.83500   0.
   115.49000     1.84500   0.
   116.49000     1.85500   0.
   117.49000     1.86000   0.
   118.49000     1.84500   0.
   119.49000     1.82000   0.
   120.49000     1.83500   0.
   121.49000     1.88500   0.
   122.49000     1.93500   0.
   123.49000     1.99500   0.
   124.49000     2.08500   0.
   125.48500     2.19500   0.
   126.48000     2.29500   0.
   127.68746     2.34000   0.
   128.67523     2.34000   0.
   130.05439     2.34000   0.
    -3.37000    -5.00000   0.
    -0.11000    -4.96000   0.
     3.15000    -4.87500   0.
     6.41500    -4.82500   0.
     9.68000    -4.90500   0.
    12.94000    -5.06000   0.
    16.20000    -5.12500   0.
    19.46000    -5.09500   0.
    22.72000    -5.04000   0.
    25.98000    -4.96000   0.
    29.24500    -4.88000   0.
    32.51000    -4.79500   0.
    35.77000    -4.66500   0.
    39.03000    -4.53000   0.
    42.29000    -4.34500   0.
    45.55000    -4.14000   0.
    48.81000    -4.09000   0.
    52.07000    -4.10500   0.
    55.33500    -4.14500   0.
    58.60000    -4.20000   0.
[...]
POINT_DATA      2188
CELL_DATA      4025
SCALARS Resistivity(ohm.m) double 1
LOOKUP_TABLE default
           400.96312           333.35044          1247.16929           715.54609           919.34942           317.46561           592.61429           588.56602           504.81621           391.82829           319.22261           576.19241           801.62374           490.47430           472.36587          1379.31359           667.29700           523.40972           322.91555           450.95868           505.88344           511.01121           391.67906           355.76339           588.36480           275.17929          2095.26184           258.51541          1575.29654           202.25473           318.15144          1012.42636           643.56784           912.03150           271.77538           295.18208           578.21085           657.01826           180.22557           507.09244           336.02207          1051.75751         22911.97782           547.34371           545.40637           772.33831           631.68695           271.18945           938.53181           334.49212           495.32776           384.68927           380.27478           229.44640           269.07377           627.03994           394.74139           314.86183           334.92170           425.18167           631.01030           528.67199           361.63338           428.65935           510.47531         16374.07540           212.45545          1293.16301           587.98923           523.00621          1620.19427           467.60401           370.62883           336.12731           423.01655           352.17011           382.75879           301.79638           455.72919          1944.13975           433.33338           567.17010           527.71058           309.74019           627.41936           521.24437           224.04165           439.43262           185.45734           350.85780           312.60889           540.15207          1022.20134           512.43686           217.82966           889.73257           611.56340           439.51253           714.84520           388.65659           663.61406           450.62903           736.25572           706.43472           639.95631           338.33121          1029.87138           890.31245          1000.33717           437.75606           330.61767          1257.67428           551.35824           398.87686           659.48053           471.18523          8395.21038           447.57970           578.15993           401.15591           455.51242           871.88792          1161.12533           297.22379           230.38589          1187.67113           337.99276           461.79161           588.56167           992.21840           608.65936           371.18023           719.75184           389.03721           205.58874           747.24113           726.32138           762.73134           634.39076           686.71315           402.39169           177.01834           213.56736           298.83400           265.83323           522.51844           468.92161          1134.23059           257.81484           954.82599           785.94368           457.19680           486.95274           444.06332          1086.56623           351.73179           831.52178           411.18753           568.28673          1601.15429           374.05327           669.64241           907.71004           427.45657           483.27539           306.33890           695.66729           688.06869           885.11694           624.04073           377.67858           520.04449           530.44427           632.55391           418.62235           340.55466           292.27514           499.30964           783.98164           830.99958           843.25268           744.71406           220.81082           521.22153           332.98066           559.05214           484.38759           354.37772           599.69113           581.17931           287.04157           626.47731           987.90668          1449.91223           418.72317          2103.37604           524.04949           516.95510          6767.26418           690.20783           388.72778           319.17547           414.30334           473.50265           627.98267           533.84361           297.41101           540.37954           759.67908           798.98290          1753.12748           458.13544           612.83349           955.48143           576.57444           225.85552           720.11737           660.48301           280.63148           756.39920          1340.04521           966.49981           312.82361           425.64294           627.70986           476.79559           433.67995          5480.03717          1327.42609           424.28163          1247.19093           568.59649           880.30340           444.52388           581.34358           892.41189           435.46340           542.28364           526.60538           602.55147           969.49903           723.63305           774.44144           537.62170           342.16999           840.07846          1943.02479           543.25648           728.26225           929.02856           288.93578           758.54805           346.72457           621.94882           397.52017           517.32317           503.66261         21590.37017           628.12523           823.79123           294.16711           412.67913           483.05153           952.64005           550.94079           539.86338           631.51981          1148.57312           692.48383          1294.37481           283.00051          3374.84554          1193.38892           471.77513           890.31978           395.28900          1218.05884           877.90597           483.82303          1110.45005          3314.57931           543.88556           413.17979         16213.80392           599.87511           649.27561           441.23698           513.58298           875.90588          1007.69694           332.68008           376.46919           482.85770           531.69141           657.34829           665.19346           327.96567           600.47669           355.74193           276.20532           339.32748           602.90232           805.43715           415.65573           521.27316           940.55871           638.67224           449.02167           329.81562           621.51495          4441.21265          2824.01817           548.00451           737.65511           384.65741           368.11189           676.26252           197.45047           644.30314           606.67021           327.53017           937.56182           961.97523           361.16118           778.01460          1119.95009           208.65737           480.39808          1711.31104           993.60862           220.28874           501.28113           287.42460           469.11448           197.30293           660.45464           586.14177           963.83195           963.50484           909.35253           447.03170           521.44988           964.98620           818.68212           442.64435           520.81849           478.54343           295.19802           415.51407           984.56980           327.40842          1309.68859           921.51437           395.58367           957.31798           483.86420           960.60982           517.82860          9383.78205           508.93015           264.46187           367.35701           458.16340           508.61049           372.76432           444.32419           487.45563           333.40623           925.57416          1287.56592           451.09643           425.34098           335.51126           751.22420          1550.88022           188.21968           416.91982           267.95980           389.48713           427.96090           569.77136           902.09540           304.91573           688.82913          1002.06402           318.74770           484.23523           407.82775          1324.49908         27767.82225           492.31244           245.33932           988.09768           582.48068           348.64651           525.99819           383.14459          1482.38893          5557.32722           508.26180           327.70281           930.42005           258.77984           271.92069           569.89786           400.68182           742.74053           396.62935           486.33452           771.62214           404.95088           635.58031           305.72520           453.81242           289.62017           531.05215           485.67929           408.64798           407.70980          1310.30649           942.95758           622.85165           420.71472           202.55119           549.56930           859.70459           533.01638          1672.98376           371.96862           514.60956           939.22919           332.20901           441.73151           729.04002           471.14149           606.97842           461.11124          2467.19244           202.76123           431.00703           400.19402           570.05919           339.57952           983.24800           841.63001           580.34811          1246.39432           347.77018           336.10668          1131.63109           967.75159           376.60712           234.44653           458.77942          1130.80787           926.50726           350.21769           453.09068           720.00990           617.25908           399.35016           402.39690           513.17555          3194.20175          5881.68518           273.07334           331.68167          1008.62066           345.06559           346.28891           607.30360           227.47642           904.44566           373.27209           374.93986           614.11450           418.06453           687.50170           387.84344           619.91352           509.39177           680.31968           206.35275           484.95404           418.04223           944.87325           410.95835           426.63179           334.82719         12022.14901          6316.59390           853.11830           557.65845           403.15777           331.06169           601.35119           446.71827           436.90991           509.73543           961.47045           634.45040           289.25624           617.75603           618.93001           522.45931           310.52815           466.04895          1056.17086           962.27725           687.16534           502.25061           522.96128           518.59375           521.69243           527.12684           351.83889           355.40182           330.23499           376.96666           891.94545           385.34822           328.02851           535.15901           962.44512           417.64020           314.96251           522.09096           888.39278           306.25672           987.84816           516.65443           334.89442          4117.43969           763.83644           957.13182           547.59580          1988.84606           874.73268           914.01261           538.20193           358.27916           182.60556           283.18483           336.42133           222.54222           463.53130           934.60397          1071.71433          1417.30931           194.51763           383.52604           512.94116           454.35974           492.92282           547.76678           961.80461           599.05388           259.14325           435.56023           304.52021           405.35795           462.64091           287.48298           460.29873           315.55796           868.59245           599.34262           638.60800           343.93483           800.77097           520.76728           237.06526           890.05441           534.81114           310.94285           655.36283           474.67015           259.46489           972.22275           958.05082           393.38204           435.25057           509.00966           951.58970           524.12687          3022.93108          2672.83203           522.37364           941.39054           529.73161           575.86598           556.89472           639.62302           580.78075           595.50422           620.81896          1077.82209           348.56094           832.40301           530.44323           431.47910           241.58049           508.86633           519.02149           512.31814           681.97457           199.22564           346.50671           955.41490           524.61025           956.00845           355.88797           958.10438           353.99439           558.99680           533.07332           490.46548           611.55573           603.44506           429.07667           556.81891           325.01815           550.45943           959.99252           829.70738          3244.89595          2291.31614           452.30343           501.68974           527.58627           303.75725           954.68471           426.01190           470.64159           512.90906           523.11794           524.60217           877.67555           474.86478           519.90922           966.58997           523.71416           205.77174           229.47687          1081.48428           572.91843           299.47673           472.27041           421.31726          6278.53267           954.86502           264.81674          1251.68363           544.03962           417.56207           972.06030           599.16868           224.48538           970.04272           249.99784           267.97354           602.28479           391.27346           418.94475           541.28482           451.55268          1359.87362           950.39885           947.31851           290.19214           352.84959          2277.78329           527.88167           527.71659           956.80601           374.96753           682.39673           945.07314           952.64290           528.44982           577.96853          1292.13672          3912.98719           481.58987          2727.26043           459.43745           513.12133           376.43847           960.23324           408.42251           978.13348           441.44329           615.94831           488.22945           448.29300           521.50409           931.26596           953.80499           511.60314           983.72628           627.75025           514.91555          1505.88238           566.41912           293.36450           432.71970           930.59677           515.82355           515.09640           320.45164           500.50417           286.22950           506.34384           996.32085           347.69565           923.59876           310.47388           583.17138           551.76328           525.10638           338.99399           365.91981           714.24686           452.84961           289.37924           967.93680           526.33110           525.07326           433.50245           494.83423           951.94562          1033.79559           814.88894           369.42623           647.85085         13135.35480           373.98172           957.36342           602.82578          1060.26651           551.58511           893.24668          2115.70132           331.05056           524.13039           469.20370           627.96372          1053.40422           560.31141           717.04402           975.72410           299.22339           538.79125           502.10452           379.06067          1643.05347           443.53053           250.66380           952.79287           407.29795           546.00652           507.65483           500.42308           432.89452           697.13046          1384.18327           359.64862           469.61197           616.79330          1231.74664          1135.99378           569.71579         37317.92486           491.09022           399.43417          1203.89850           507.70035           386.44513           601.85225           429.36133           509.84059           344.83332           599.30393          1116.68765           523.82451           519.42784           197.61712          1003.79201           243.98925           536.25790           240.69956           913.69969           617.32621           966.91557           686.49188          2206.45753           975.32326           378.25212           280.12605           416.01754           503.15288          1187.90288           320.39894           518.09544           539.94182          2571.10893          2482.80047           393.06845           500.89945           247.97865           525.03218           310.85248           793.70340          1018.23530           420.36818           456.22697           951.85167           628.10151           446.06760           524.26386           305.47602           523.75585           310.15874           204.86362           502.84163          3331.47913           524.50400           803.75616           615.08575           874.70947           958.67625           307.80971           668.68693           287.22062           518.67502           329.51915           268.50315           968.08851          1480.03887           519.36743           209.94523           621.51730          1419.51927           509.66588           328.36342           448.74026           490.84576          1013.03208           377.60436           513.55452           344.72358           458.06028           421.69287           525.88400           951.29245          1075.33588           618.32545          1730.16052          1325.10130           613.37377           302.86097           852.50937           364.37973           303.04904           434.08264           464.79557           489.46826          1094.24987          1843.80213           547.46244           341.26289           763.85235           957.28413           524.53927           988.92681          1494.91756           483.72491          1299.70810           461.78511          1432.16602           314.99647           950.64068           286.57822           334.57203           951.99174          1262.74823           617.75824           525.94566           583.82809          1180.02008           521.74410           525.62471           575.61151           891.36975           596.49129           271.12579          1158.93509           415.62063           240.34735           287.43935           466.73878           535.43215           372.39396           524.32900           472.27730           620.30976           956.73855           477.17125           525.04127           535.17266           641.41408           959.55320          4523.52296           365.06053           949.29581           328.42466           498.55117           951.96396           567.38576           971.05384           972.38588          1045.39489           549.99910           485.44165          8086.22104           526.07956           546.45952           384.98035           640.30343           625.25306           601.69926           907.06780           625.47132          1466.24857           959.65864           961.36839           585.59084           963.06936          2650.46887           985.71867           517.06313           360.90338           653.47032           305.64996           564.96409           944.55069           245.36976           537.24681           569.73313           525.00497           505.62959           942.44110           954.88952           555.64302          1052.05806           521.12001           543.76062           452.91435           948.57569           950.13047           611.18547           986.89366           596.09620          1041.28954           950.36217           527.09314           400.39371           512.47851           388.29034           310.98203           426.50859           988.96152           449.63205           501.31300           385.90165           508.78733           521.50396           511.07514           522.79670           523.17933          1155.09865           463.53730           538.95413           414.34764           564.29513           201.34985           374.33195           229.52180           168.11794           525.05427          1401.86407           556.35417          2709.95083           527.04960           401.01600  