# vtk DataFile Version 3.0
Output from R2
ASCII
DATASET UNSTRUCTURED_GRID
POINTS       2188 double
    -5.00000     0.00000   0.
     0.00000     0.00000   0.
     1.00000     0.05000   0.
     2.00000     0.10000   0.
     3.00000     0.12000   0.
     4.00000     0.14000   0.
     5.00000     0.18000   0.
     6.00000     0.22000   0.
     7.00000     0.20000   0.
     8.00000     0.18000   0.
     9.00000     0.11000   0.
    10.00000     0.05000   0.
    11.00000     0.02000   0.
    12.00000    -0.01000   0.
    13.00000    -0.06000   0.
    14.00000    -0.11000   0.
    15.00000    -0.15000   0.
    16.00000    -0.19000   0.
    17.00000    -0.15000   0.
    18.00000    -0.11000   0.
    19.00000    -0.05000   0.
    20.00000     0.00000   0.
    21.00000    -0.07000   0.
    22.00000    -0.13000   0.
    23.00000    -0.08000   0.
    24.00000    -0.03000   0.
    25.00000     0.03000   0.
    26.00000     0.09000   0.
    27.00000     0.09000   0.
    28.00000     0.09000   0.
    29.00000     0.12000   0.
    30.00000     0.15000   0.
    31.00000     0.16000   0.
    32.00000     0.16000   0.
    33.00000     0.21000   0.
    34.00000     0.26000   0.
    35.00000     0.24000   0.
    36.00000     0.22000   0.
    37.00000     0.35000   0.
    37.99000     0.48000   0.
    38.99000     0.48000   0.
    39.99000     0.48000   0.
    40.99000     0.55000   0.
    41.99000     0.62000   0.
    42.98000     0.73000   0.
    43.98000     0.78000   0.
    44.98000     0.83000   0.
    45.98000     0.88000   0.
    46.98000     0.93000   0.
    47.98000     0.98000   0.
    48.98000     0.94000   0.
    49.98000     0.90000   0.
    50.98000     0.86000   0.
    51.98000     0.82000   0.
    52.98000     0.88000   0.
    53.98000     0.93000   0.
    54.98000     0.89000   0.
    55.98000     0.85000   0.
    56.98000     0.80000   0.
    57.98000     0.75000   0.
    58.98000     0.78000   0.
    59.98000     0.80000   0.
    60.98000     0.80000   0.
    61.98000     0.80000   0.
    62.99000     0.81000   0.
    63.99000     0.82000   0.
    64.99000     0.81000   0.
    65.99000     0.81000   0.
    66.99000     0.83000   0.
    67.99000     0.85000   0.
    68.99000     0.87000   0.
    69.99000     0.90000   0.
    70.99000     1.00000   0.
    71.98000     1.10000   0.
    72.98000     1.20000   0.
    73.98000     1.29000   0.
    74.98000     1.34000   0.
    75.97000     1.40000   0.
    76.97000     1.46000   0.
    77.97000     1.51000   0.
    78.97000     1.41000   0.
    79.97000     1.32000   0.
    80.97000     1.37000   0.
    81.97000     1.42000   0.
    82.97000     1.37000   0.
    83.97000     1.32000   0.
    84.97000     1.35000   0.
    85.97000     1.37000   0.
    86.97000     1.40000   0.
    87.97000     1.42000   0.
    88.97000     1.39000   0.
    89.97000     1.37000   0.
    90.97000     1.42000   0.
    91.97000     1.47000   0.
    92.97000     1.48000   0.
    93.97000     1.49000   0.
    94.97000     1.50000   0.
    95.98000     1.50000   0.
    96.98000     1.52000   0.
    97.98000     1.54000   0.
    98.98000     1.54000   0.
    99.98000     1.54000   0.
   100.98000     1.58000   0.
   101.98000     1.61000   0.
   102.98000     1.60000   0.
   103.98000     1.59000   0.
   104.98000     1.62000   0.
   105.98000     1.64000   0.
   106.98000     1.68000   0.
   107.98000     1.71000   0.
   108.98000     1.73000   0.
   109.99000     1.76000   0.
   110.99000     1.81000   0.
   111.99000     1.85000   0.
   112.99000     1.84000   0.
   113.99000     1.83000   0.
   114.99000     1.84000   0.
   115.99000     1.85000   0.
   116.99000     1.86000   0.
   117.99000     1.86000   0.
   118.99000     1.83000   0.
   119.99000     1.81000   0.
   120.99000     1.86000   0.
   121.99000     1.91000   0.
   122.99000     1.96000   0.
   123.99000     2.03000   0.
   124.99000     2.14000   0.
   125.98000     2.25000   0.
   126.98000     2.34000   0.
   131.98000     2.34000   0.
    -5.00000    -5.00000   0.
    -1.74000    -5.00000   0.
     1.52000    -4.92000   0.
     4.78000    -4.83000   0.
     8.05000    -4.82000   0.
    11.31000    -4.99000   0.
    14.57000    -5.13000   0.
    17.83000    -5.12000   0.
    21.09000    -5.07000   0.
    24.35000    -5.01000   0.
    27.61000    -4.91000   0.
    30.88000    -4.85000   0.
    34.14000    -4.74000   0.
    37.40000    -4.59000   0.
    40.66000    -4.47000   0.
    43.92000    -4.22000   0.
    47.18000    -4.06000   0.
    50.44000    -4.12000   0.
    53.70000    -4.09000   0.
    56.97000    -4.20000   0.
    60.23000    -4.20000   0.
    63.49000    -4.18000   0.
    66.75000    -4.17000   0.
    70.01000    -4.10000   0.
    73.27000    -3.77000   0.
    76.53000    -3.57000   0.
    79.79000    -3.66000   0.
    83.06000    -3.64000   0.
    86.32000    -3.62000   0.
    89.58000    -3.62000   0.
    92.84000    -3.52000   0.
    96.10000    -3.50000   0.
    99.36000    -3.46000   0.
   102.62000    -3.40000   0.
   105.89000    -3.36000   0.
   109.15000    -3.26000   0.
   112.41000    -3.16000   0.
   115.67000    -3.15000   0.
   118.93000    -3.17000   0.
   122.19000    -3.08000   0.
   125.45000    -2.81000   0.
   128.71000    -2.66000   0.
   131.98000    -2.66000   0.
  -639.88000     0.00000   0.
  -639.88000  -385.93000   0.
   766.86000     2.34000   0.
   766.86000  -385.93000   0.
    -3.07439     0.00000   0.
    -1.69523     0.00000   0.
    -0.70746     0.00000   0.
     0.50000     0.02500   0.
     1.50000     0.07500   0.
     2.50000     0.11000   0.
     3.50000     0.13000   0.
     4.50000     0.16000   0.
     5.50000     0.20000   0.
     6.50000     0.21000   0.
     7.50000     0.19000   0.
     8.50000     0.14500   0.
     9.50000     0.08000   0.
    10.50000     0.03500   0.
    11.50000     0.00500   0.
    12.50000    -0.03500   0.
    13.50000    -0.08500   0.
    14.50000    -0.13000   0.
    15.50000    -0.17000   0.
    16.50000    -0.17000   0.
    17.50000    -0.13000   0.
    18.50000    -0.08000   0.
    19.50000    -0.02500   0.
    20.50000    -0.03500   0.
    21.50000    -0.10000   0.
    22.50000    -0.10500   0.
    23.50000    -0.05500   0.
    24.50000     0.00000   0.
    25.50000     0.06000   0.
    26.50000     0.09000   0.
    27.50000     0.09000   0.
    28.50000     0.10500   0.
    29.50000     0.13500   0.
    30.50000     0.15500   0.
    31.50000     0.16000   0.
    32.50000     0.18500   0.
    33.50000     0.23500   0.
    34.50000     0.25000   0.
    35.50000     0.23000   0.
    36.50000     0.28500   0.
    37.49500     0.41500   0.
    38.49000     0.48000   0.
    39.49000     0.48000   0.
    40.49000     0.51500   0.
    41.49000     0.58500   0.
    42.48500     0.67500   0.
    43.48000     0.75500   0.
    44.48000     0.80500   0.
    45.48000     0.85500   0.
    46.48000     0.90500   0.
    47.48000     0.95500   0.
    48.48000     0.96000   0.
    49.48000     0.92000   0.
    50.48000     0.88000   0.
    51.48000     0.84000   0.
    52.48000     0.85000   0.
    53.48000     0.90500   0.
    54.48000     0.91000   0.
    55.48000     0.87000   0.
    56.48000     0.82500   0.
    57.48000     0.77500   0.
    58.48000     0.76500   0.
    59.48000     0.79000   0.
    60.48000     0.80000   0.
    61.48000     0.80000   0.
    62.48500     0.80500   0.
    63.49000     0.81500   0.
    64.49000     0.81500   0.
    65.49000     0.81000   0.
    66.49000     0.82000   0.
    67.49000     0.84000   0.
    68.49000     0.86000   0.
    69.49000     0.88500   0.
    70.49000     0.95000   0.
    71.48500     1.05000   0.
    72.48000     1.15000   0.
    73.48000     1.24500   0.
    74.48000     1.31500   0.
    75.47500     1.37000   0.
    76.47000     1.43000   0.
    77.47000     1.48500   0.
    78.47000     1.46000   0.
    79.47000     1.36500   0.
    80.47000     1.34500   0.
    81.47000     1.39500   0.
    82.47000     1.39500   0.
    83.47000     1.34500   0.
    84.47000     1.33500   0.
    85.47000     1.36000   0.
    86.47000     1.38500   0.
    87.47000     1.41000   0.
    88.47000     1.40500   0.
    89.47000     1.38000   0.
    90.47000     1.39500   0.
    91.47000     1.44500   0.
    92.47000     1.47500   0.
    93.47000     1.48500   0.
    94.47000     1.49500   0.
    95.47500     1.50000   0.
    96.48000     1.51000   0.
    97.48000     1.53000   0.
    98.48000     1.54000   0.
    99.48000     1.54000   0.
   100.48000     1.56000   0.
   101.48000     1.59500   0.
   102.48000     1.60500   0.
   103.48000     1.59500   0.
   104.48000     1.60500   0.
   105.48000     1.63000   0.
   106.48000     1.66000   0.
   107.48000     1.69500   0.
   108.48000     1.72000   0.
   109.48500     1.74500   0.
   110.49000     1.78500   0.
   111.49000     1.83000   0.
   112.49000     1.84500   0.
   113.49000     1.83500   0.
   114.49000     1.83500   0.
   115.49000     1.84500   0.
   116.49000     1.85500   0.
   117.49000     1.86000   0.
   118.49000     1.84500   0.
   119.49000     1.82000   0.
   120.49000     1.83500   0.
   121.49000     1.88500   0.
   122.49000     1.93500   0.
   123.49000     1.99500   0.
   124.49000     2.08500   0.
   125.48500     2.19500   0.
   126.48000     2.29500   0.
   127.68746     2.34000   0.
   128.67523     2.34000   0.
   130.05439     2.34000   0.
    -3.37000    -5.00000   0.
    -0.11000    -4.96000   0.
     3.15000    -4.87500   0.
     6.41500    -4.82500   0.
     9.68000    -4.90500   0.
    12.94000    -5.06000   0.
    16.20000    -5.12500   0.
    19.46000    -5.09500   0.
    22.72000    -5.04000   0.
    25.98000    -4.96000   0.
    29.24500    -4.88000   0.
    32.51000    -4.79500   0.
    35.77000    -4.66500   0.
    39.03000    -4.53000   0.
    42.29000    -4.34500   0.
    45.55000    -4.14000   0.
    48.81000    -4.09000   0.
    52.07000    -4.10500   0.
    55.33500    -4.14500   0.
    58.60000    -4.20000   0.
[...]
POINT_DATA      2188
CELL_DATA      4025
SCALARS Resistivity(ohm.m) double 1
LOOKUP_TABLE default
           463.81090           373.32137          1306.53370           832.72339          1031.17479           301.42661           702.78145           699.16323           600.51748           451.31791           314.35723           762.57880           918.74339           582.08972           568.94777          1429.54617           790.89792           627.38902           306.29947           541.86774           601.33339           435.86148           463.35642           404.41188           697.21231           356.98805          1880.70652           249.00517          1563.58197           243.59784           330.88832          1115.31759           767.80322          1020.59340           315.84079           551.63238           792.79973           921.63275           204.27699           602.94149           377.40662          1243.57594          5799.71685           496.69827           649.63451           889.46159           808.50783           324.32851          1056.27917           305.25437           588.60314           456.96383           344.43779           559.55105           260.73042           815.63992           458.41094           504.83709           290.14989           589.98527           744.98455           634.31027           392.17611           479.82315           607.47042          4930.51185           523.57608          1339.66242           772.67555           626.88493          1585.40468           654.80396           498.14916           297.65025           438.17199           394.27495           345.73988           298.79874           627.34395          1788.22951           511.32874           568.49016           633.71328           331.59054           632.30991           624.23105           261.46021           514.93183           214.73430           446.77294           391.37479           644.39014          1113.84167           610.67236           265.61474          1045.73603           722.62299           550.84061           830.95818           442.85748           784.01027           550.80901           914.82472           889.87686           745.03761           672.34687          1121.32097          1004.87581          1107.24638           527.21193           312.61054          1311.72117           656.51284           435.03964           774.70992           654.87841          2382.93865           525.58121           686.34442           565.63870           565.97517           993.26365          1232.74513           233.76159           277.92873          1260.74741           636.26578           485.13802           780.11709          1085.84373           855.74068           469.19073           874.73819           448.50159           247.40359           867.08141           863.55439           891.12007           784.42578           830.92946           472.91601           204.53947           231.20868           319.95943           277.58652           625.99985           466.16054          1295.08230           284.98691          1064.73277          1019.27227           655.95336           598.97414           547.00077          1169.41886           449.94486           955.09233           536.49783           521.95064          1564.89996           497.83053           889.00146          1017.93808           617.68504           691.90308           277.68987           821.68684           805.47764           996.21184           787.48058           526.19433           621.14457           635.16573           651.51883           443.18582           300.65005           317.53748           633.18970           906.11072           945.55039          1001.02188           862.75020           240.42174           443.53713           343.79291           494.69781           675.73333           382.95796           641.56111           481.40948           305.85985           795.85718          1083.17095          1466.01853           529.80121          1886.33547           628.09993           617.03776          3700.95274           810.01217           458.38033           374.24634           491.39334           578.39742           639.72350           641.78999           241.51612           391.67225           899.47799           936.21811          1670.72367           621.97108           348.64914          1047.70843           684.23742           278.66831           868.19902           863.40781           614.92806           881.33677          1417.32330          1060.84482           315.66783           771.80043           630.65338           569.62346           401.72829          2356.35405          1380.12110           522.66832          1304.85454           686.94281           993.66837           576.07407           739.11525          1014.99274           606.27805           646.96669           632.50286           787.20714          1065.73521           847.79882           953.95170           665.65822           359.88119           954.90710          1790.96878           650.39528           860.31964          1033.32992           350.77916           915.85316           289.71874           785.59028           423.82120           591.35872           598.60795          6702.12010           758.92951           954.90968           333.52940           532.08536           579.54724          1046.12150           757.32178           644.71290           807.43203          1224.41693           831.67237          1361.68645           354.33156          2533.55124          1259.67157           642.50614          1003.67318           500.41752          1280.12503          1098.35066           586.37122          1189.82654          2238.78168           647.89672           543.35226          3633.07845           747.71425           793.99286           590.61521           612.33611           987.48131          1104.20204           303.25602           433.48614           698.08249           636.97388           843.12618           842.39428           415.90188           764.35190           454.48675           266.79479           406.75448           612.74103           933.19171           518.84095           529.51547          1039.19727           353.70787           586.07048           319.76286           749.56871          2482.37054          2262.56224           653.09246           958.73941           481.13569           423.65179           858.64229           234.03363           772.20044           687.07330           393.86370          1036.99728          1056.93872           469.71549           898.05834          1202.24369           244.11718           566.87028          1640.56733          1089.24435           268.79331           714.70694           234.79940           669.24550           232.79839           774.78913           727.86193          1053.27141          1061.65936          1016.90153           615.26055           624.86504          1055.10553           940.07730           621.69908           623.96035           771.91008           280.81401           393.44923          1082.92811           377.78934          1355.37801          1026.76829           490.65981          1070.33828           571.59538          1054.70721           619.13522          4378.03740           625.89737           256.89425           448.71124           588.00261           605.18470           482.14095           606.77546           581.53039           372.34486          1036.29731          1370.76331           655.22726           482.02337           401.24250          1003.78455          1300.21586           209.61686           488.04565           255.91619           434.75813           614.93358           772.68322          1011.18325           324.87653           860.32651          1094.27264           333.63778           824.99995           476.83839          1369.01832          7200.85422           695.36250           244.37865          1087.29432           418.76488           421.28976           631.43751           512.39525          1482.59193          3353.06178           604.90557           307.48567          1070.17001           257.39753           313.67883           772.61476           554.87034           858.83704           434.64554           574.60884           887.81210           457.60694           748.26801           252.49786           533.16492           271.53465           637.29514           669.38705           427.28310           490.32822          1414.03387          1052.87860           737.80451           514.80027           229.73639           656.27175           997.66717           744.49284          1624.58620           426.68433           376.49960          1039.03910           344.36589           570.33699           901.11987           556.14423           770.56794           542.58131          1593.69202           397.04929           572.09950           462.12418           678.50891           360.97708          1111.96750           960.22388           731.76895          1315.78092           396.11605           352.15967          1208.25170          1084.80440           386.47504           264.63958           539.14730          1213.37965          1032.82864           411.25229           608.10618           841.34565           845.70650           488.09042           551.31057           611.19520          2380.43799          3397.96189           239.70264           344.74184          1101.74844           375.36101           360.66108           354.05129           226.22297          1012.51278           386.71017           483.53686           756.73626           506.84794           350.51935           450.36972           740.89303           714.36566           882.64955           213.10049           577.18591           393.90767          1141.38630           477.94035           501.12235           411.47942          5008.80238          3457.84744           966.33637           663.62658           560.67247           295.05313           580.01302           381.69289           557.90558           606.71739          1050.31674           752.11276           356.81727           735.34373           770.94993           626.26557           386.91293           548.60424          1162.90558          1054.68519           802.35704           596.84124           627.03710           620.25663           623.64605           633.66499           452.62289           294.65003           418.93864           390.33111          1055.15364           472.79864           313.50827           640.64473          1051.62272           518.79811           297.84016           625.73057          1000.52416           282.12147          1093.07368           617.23443           352.98990          2217.70291           929.02851          1046.68027           354.97941          1819.87578           991.71015          1020.18012           643.48970           383.25727           210.30409           627.75934           344.20552           541.83388           583.68255          1048.35764          1156.18465          1438.67092           231.51710           709.16718           634.73552           359.85811           586.51750           529.90982          1051.59310           736.73120           229.71631           554.91613           247.39156           481.51735           548.66791           292.28775           548.33747           287.16458           996.59868           698.46870           694.15424           370.01977           916.20220           623.33971           222.09224          1000.07388           524.80924           333.66534           812.73882           563.65417           296.17591          1072.27176          1056.56937           513.31312           528.00110           643.43767          1044.80981           628.13087          2372.71193          2193.80258           626.07512          1039.26916           636.44854           527.54781           671.41646           680.13162           579.70610           619.23707           656.00649          1162.70824           379.44239           949.88929           636.24809           504.99565           547.53355           605.66662           621.08715           610.36609           352.06585           219.90201           415.63834          1049.99607           628.77441          1046.08615           446.37093          1047.28217           389.26163           550.77120           638.99108           581.65633           723.27387           716.67684           570.09855           684.13647           353.54867           655.87259          1048.77316           945.57880          2471.53893          1264.24707           609.43226           595.49983           536.16761           271.07936          1045.76629           494.41051           548.65748           673.87650           627.21842           628.88357           990.15131           561.66530           622.55217          1057.28603           627.71032           439.42115           240.43943          1169.51131           716.18055           308.83181           533.07448           552.51961          2045.21454          1045.71564           291.99980          1315.60865           678.90912           595.60737          1064.89131           720.18037           253.76889          1062.19330           256.98021           333.48697           792.54359           507.58122           537.53321           646.40287           573.28340          1391.79129          1043.75690          1042.34178           291.67340           389.20653          1985.92644           635.12962           644.67844          1049.52005           410.61059           841.62555          1041.32350          1044.99785           635.40856           602.45346          1339.40374          2762.14358           568.35491          2165.85627           655.07949           505.89499           482.27320          1050.11283           694.90592          1074.74462           584.78775           784.81461           613.21012           534.12445           622.66539          1036.12787          1045.42268           609.54964          1076.85117           808.65613           711.32677          1125.49008           464.81270           248.11015           508.15847          1032.30978           615.62260           614.82167           301.76743           594.01228           328.27456           612.48679          1088.38739           364.09004          1027.54470           289.90964           418.11211           751.43106           400.39284           361.24574           409.78627           986.27081           531.66465           260.29199          1059.53900           632.55443           629.55803           548.52843           585.98155          1044.63370          1122.52190           955.23223           443.52726           831.91493          3572.51610           426.95406          1052.45257           727.72598          1145.82280           710.16123          1010.82214          1891.71799           335.44101           628.28580           632.61113           362.00033          1140.53639           699.75094           354.34647          1071.47032           645.67979           475.87564           595.92470           430.79359          1591.69305           530.34992           305.45072          1045.01991           472.11515           441.15020           603.73438           600.53619           506.21043           827.06462          1408.48536           399.43682           552.89601           390.76395          1291.09699          1211.46668           567.45582          8361.68967           580.92577           338.26865          1269.40717           838.56268           384.59781           606.49350           530.17258           489.04805           397.57345           713.50325          1264.43861           627.57723           621.39646           212.41974          1095.22315           302.35610           521.72697           206.94382          1025.27274           787.65071          1059.10338           884.88314          1945.19726          1068.40199           339.84609           277.14138           544.67723           599.19523          1263.73870           373.54032           616.71564           519.17119          2133.62873          2099.10249           451.84397           598.12584           267.10888           626.96098           276.81067           945.07987          1127.79840           489.88529           767.01696          1047.85785           767.49501           522.99780           626.81658           334.38982           626.91969           367.82064           479.36877           657.85378          2341.48594           628.63361           921.97668           723.34946          1017.92521          1055.34141           372.54500           799.93475           265.83832           617.97038           327.63694           264.45318          1061.39189          1446.39468           621.57276           236.15896           778.32378          1434.66171           606.65103           407.92693           472.63869           583.33315          1103.56000           359.12743           612.46308           351.04973           568.34935           539.03891           630.82582          1049.84493          1159.01453           706.02098          1650.19182          1402.88237           795.32816           351.81324           968.36863           462.28166           322.74783           544.03955           546.80536           705.96186          1175.49015          1724.03656           546.34448           359.67508           970.16264          1047.08514           628.19913          1081.81909          1488.60390           630.03417          1344.77215           630.68042          1443.67035           396.88815          1045.95081           318.92238           363.11574          1044.61200          1315.81961           627.77913           631.48981           715.41839          1248.58673           624.39373           630.12925           692.60222          1021.35094           373.27912           334.83159          1230.84505           528.63573           246.49224           286.17061           611.50818           638.38204           420.50635           736.91278           556.62846           799.46233          1047.59088           421.77041           628.16408           637.20905           701.67434          1048.41150          2993.72916           411.76697          1047.37412           325.48162           591.03746          1052.69252           397.80834          1069.88839          1074.92575          1132.90665           671.99309           663.07631          3878.44592           628.62955           770.47973           464.36495           686.29177           663.43864           627.94187          1096.62351           754.62037          1468.78386          1048.72651          1064.13984           782.72597          1062.79868          2164.41228          1088.03626           617.84455           435.77924           366.83062           385.39491           671.52401          1044.05352           386.06624           639.33900           588.53982           636.92412           600.85294          1044.66318          1057.01498           660.92576          1145.91910           624.34325           711.42540           653.89318          1049.24310          1043.44042           380.65703          1080.50172           572.95036          1196.64424          1043.64957           634.43896           462.53232           610.75115           304.19730           259.32710           498.03267          1111.28166           529.05595           687.92758           441.41582           605.61883           621.02216           615.20555           679.20236           627.19663          1269.51556           546.29304           564.39701           481.90299           706.74853           354.53954           279.89315           212.23271           184.91513           629.56185          1474.73712           514.65439          2126.70983           634.02391           404.52167  