# vtk DataFile Version 3.0
Output from R2
ASCII
DATASET UNSTRUCTURED_GRID
POINTS       2188 double
    -5.00000     0.00000   0.
     0.00000     0.00000   0.
     1.00000     0.05000   0.
     2.00000     0.10000   0.
     3.00000     0.12000   0.
     4.00000     0.14000   0.
     5.00000     0.18000   0.
     6.00000     0.22000   0.
     7.00000     0.20000   0.
     8.00000     0.18000   0.
     9.00000     0.11000   0.
    10.00000     0.05000   0.
    11.00000     0.02000   0.
    12.00000    -0.01000   0.
    13.00000    -0.06000   0.
    14.00000    -0.11000   0.
    15.00000    -0.15000   0.
    16.00000    -0.19000   0.
    17.00000    -0.15000   0.
    18.00000    -0.11000   0.
    19.00000    -0.05000   0.
    20.00000     0.00000   0.
    21.00000    -0.07000   0.
    22.00000    -0.13000   0.
    23.00000    -0.08000   0.
    24.00000    -0.03000   0.
    25.00000     0.03000   0.
    26.00000     0.09000   0.
    27.00000     0.09000   0.
    28.00000     0.09000   0.
    29.00000     0.12000   0.
    30.00000     0.15000   0.
    31.00000     0.16000   0.
    32.00000     0.16000   0.
    33.00000     0.21000   0.
    34.00000     0.26000   0.
    35.00000     0.24000   0.
    36.00000     0.22000   0.
    37.00000     0.35000   0.
    37.99000     0.48000   0.
    38.99000     0.48000   0.
    39.99000     0.48000   0.
    40.99000     0.55000   0.
    41.99000     0.62000   0.
    42.98000     0.73000   0.
    43.98000     0.78000   0.
    44.98000     0.83000   0.
    45.98000     0.88000   0.
    46.98000     0.93000   0.
    47.98000     0.98000   0.
    48.98000     0.94000   0.
    49.98000     0.90000   0.
    50.98000     0.86000   0.
    51.98000     0.82000   0.
    52.98000     0.88000   0.
    53.98000     0.93000   0.
    54.98000     0.89000   0.
    55.98000     0.85000   0.
    56.98000     0.80000   0.
    57.98000     0.75000   0.
    58.98000     0.78000   0.
    59.98000     0.80000   0.
    60.98000     0.80000   0.
    61.98000     0.80000   0.
    62.99000     0.81000   0.
    63.99000     0.82000   0.
    64.99000     0.81000   0.
    65.99000     0.81000   0.
    66.99000     0.83000   0.
    67.99000     0.85000   0.
    68.99000     0.87000   0.
    69.99000     0.90000   0.
    70.99000     1.00000   0.
    71.98000     1.10000   0.
    72.98000     1.20000   0.
    73.98000     1.29000   0.
    74.98000     1.34000   0.
    75.97000     1.40000   0.
    76.97000     1.46000   0.
    77.97000     1.51000   0.
    78.97000     1.41000   0.
    79.97000     1.32000   0.
    80.97000     1.37000   0.
    81.97000     1.42000   0.
    82.97000     1.37000   0.
    83.97000     1.32000   0.
    84.97000     1.35000   0.
    85.97000     1.37000   0.
    86.97000     1.40000   0.
    87.97000     1.42000   0.
    88.97000     1.39000   0.
    89.97000     1.37000   0.
    90.97000     1.42000   0.
    91.97000     1.47000   0.
    92.97000     1.48000   0.
    93.97000     1.49000   0.
    94.97000     1.50000   0.
    95.98000     1.50000   0.
    96.98000     1.52000   0.
    97.98000     1.54000   0.
    98.98000     1.54000   0.
    99.98000     1.54000   0.
   100.98000     1.58000   0.
   101.98000     1.61000   0.
   102.98000     1.60000   0.
   103.98000     1.59000   0.
   104.98000     1.62000   0.
   105.98000     1.64000   0.
   106.98000     1.68000   0.
   107.98000     1.71000   0.
   108.98000     1.73000   0.
   109.99000     1.76000   0.
   110.99000     1.81000   0.
   111.99000     1.85000   0.
   112.99000     1.84000   0.
   113.99000     1.83000   0.
   114.99000     1.84000   0.
   115.99000     1.85000   0.
   116.99000     1.86000   0.
   117.99000     1.86000   0.
   118.99000     1.83000   0.
   119.99000     1.81000   0.
   120.99000     1.86000   0.
   121.99000     1.91000   0.
   122.99000     1.96000   0.
   123.99000     2.03000   0.
   124.99000     2.14000   0.
   125.98000     2.25000   0.
   126.98000     2.34000   0.
   131.98000     2.34000   0.
    -5.00000    -5.00000   0.
    -1.74000    -5.00000   0.
     1.52000    -4.92000   0.
     4.78000    -4.83000   0.
     8.05000    -4.82000   0.
    11.31000    -4.99000   0.
    14.57000    -5.13000   0.
    17.83000    -5.12000   0.
    21.09000    -5.07000   0.
    24.35000    -5.01000   0.
    27.61000    -4.91000   0.
    30.88000    -4.85000   0.
    34.14000    -4.74000   0.
    37.40000    -4.59000   0.
    40.66000    -4.47000   0.
    43.92000    -4.22000   0.
    47.18000    -4.06000   0.
    50.44000    -4.12000   0.
    53.70000    -4.09000   0.
    56.97000    -4.20000   0.
    60.23000    -4.20000   0.
    63.49000    -4.18000   0.
    66.75000    -4.17000   0.
    70.01000    -4.10000   0.
    73.27000    -3.77000   0.
    76.53000    -3.57000   0.
    79.79000    -3.66000   0.
    83.06000    -3.64000   0.
    86.32000    -3.62000   0.
    89.58000    -3.62000   0.
    92.84000    -3.52000   0.
    96.10000    -3.50000   0.
    99.36000    -3.46000   0.
   102.62000    -3.40000   0.
   105.89000    -3.36000   0.
   109.15000    -3.26000   0.
   112.41000    -3.16000   0.
   115.67000    -3.15000   0.
   118.93000    -3.17000   0.
   122.19000    -3.08000   0.
   125.45000    -2.81000   0.
   128.71000    -2.66000   0.
   131.98000    -2.66000   0.
  -639.88000     0.00000   0.
  -639.88000  -385.93000   0.
   766.86000     2.34000   0.
   766.86000  -385.93000   0.
    -3.07439     0.00000   0.
    -1.69523     0.00000   0.
    -0.70746     0.00000   0.
     0.50000     0.02500   0.
     1.50000     0.07500   0.
     2.50000     0.11000   0.
     3.50000     0.13000   0.
     4.50000     0.16000   0.
     5.50000     0.20000   0.
     6.50000     0.21000   0.
     7.50000     0.19000   0.
     8.50000     0.14500   0.
     9.50000     0.08000   0.
    10.50000     0.03500   0.
    11.50000     0.00500   0.
    12.50000    -0.03500   0.
    13.50000    -0.08500   0.
    14.50000    -0.13000   0.
    15.50000    -0.17000   0.
    16.50000    -0.17000   0.
    17.50000    -0.13000   0.
    18.50000    -0.08000   0.
    19.50000    -0.02500   0.
    20.50000    -0.03500   0.
    21.50000    -0.10000   0.
    22.50000    -0.10500   0.
    23.50000    -0.05500   0.
    24.50000     0.00000   0.
    25.50000     0.06000   0.
    26.50000     0.09000   0.
    27.50000     0.09000   0.
    28.50000     0.10500   0.
    29.50000     0.13500   0.
    30.50000     0.15500   0.
    31.50000     0.16000   0.
    32.50000     0.18500   0.
    33.50000     0.23500   0.
    34.50000     0.25000   0.
    35.50000     0.23000   0.
    36.50000     0.28500   0.
    37.49500     0.41500   0.
    38.49000     0.48000   0.
    39.49000     0.48000   0.
    40.49000     0.51500   0.
    41.49000     0.58500   0.
    42.48500     0.67500   0.
    43.48000     0.75500   0.
    44.48000     0.80500   0.
    45.48000     0.85500   0.
    46.48000     0.90500   0.
    47.48000     0.95500   0.
    48.48000     0.96000   0.
    49.48000     0.92000   0.
    50.48000     0.88000   0.
    51.48000     0.84000   0.
    52.48000     0.85000   0.
    53.48000     0.90500   0.
    54.48000     0.91000   0.
    55.48000     0.87000   0.
    56.48000     0.82500   0.
    57.48000     0.77500   0.
    58.48000     0.76500   0.
    59.48000     0.79000   0.
    60.48000     0.80000   0.
    61.48000     0.80000   0.
    62.48500     0.80500   0.
    63.49000     0.81500   0.
    64.49000     0.81500   0.
    65.49000     0.81000   0.
    66.49000     0.82000   0.
    67.49000     0.84000   0.
    68.49000     0.86000   0.
    69.49000     0.88500   0.
    70.49000     0.95000   0.
    71.48500     1.05000   0.
    72.48000     1.15000   0.
    73.48000     1.24500   0.
    74.48000     1.31500   0.
    75.47500     1.37000   0.
    76.47000     1.43000   0.
    77.47000     1.48500   0.
    78.47000     1.46000   0.
    79.47000     1.36500   0.
    80.47000     1.34500   0.
    81.47000     1.39500   0.
    82.47000     1.39500   0.
    83.47000     1.34500   0.
    84.47000     1.33500   0.
    85.47000     1.36000   0.
    86.47000     1.38500   0.
    87.47000     1.41000   0.
    88.47000     1.40500   0.
    89.47000     1.38000   0.
    90.47000     1.39500   0.
    91.47000     1.44500   0.
    92.47000     1.47500   0.
    93.47000     1.48500   0.
    94.47000     1.49500   0.
    95.47500     1.50000   0.
    96.48000     1.51000   0.
    97.48000     1.53000   0.
    98.48000     1.54000   0.
    99.48000     1.54000   0.
   100.48000     1.56000   0.
   101.48000     1.59500   0.
   102.48000     1.60500   0.
   103.48000     1.59500   0.
   104.48000     1.60500   0.
   105.48000     1.63000   0.
   106.48000     1.66000   0.
   107.48000     1.69500   0.
   108.48000     1.72000   0.
   109.48500     1.74500   0.
   110.49000     1.78500   0.
   111.49000     1.83000   0.
   112.49000     1.84500   0.
   113.49000     1.83500   0.
   114.49000     1.83500   0.
   115.49000     1.84500   0.
   116.49000     1.85500   0.
   117.49000     1.86000   0.
   118.49000     1.84500   0.
   119.49000     1.82000   0.
   120.49000     1.83500   0.
   121.49000     1.88500   0.
   122.49000     1.93500   0.
   123.49000     1.99500   0.
   124.49000     2.08500   0.
   125.48500     2.19500   0.
   126.48000     2.29500   0.
   127.68746     2.34000   0.
   128.67523     2.34000   0.
   130.05439     2.34000   0.
    -3.37000    -5.00000   0.
    -0.11000    -4.96000   0.
     3.15000    -4.87500   0.
     6.41500    -4.82500   0.
     9.68000    -4.90500   0.
    12.94000    -5.06000   0.
    16.20000    -5.12500   0.
    19.46000    -5.09500   0.
    22.72000    -5.04000   0.
    25.98000    -4.96000   0.
    29.24500    -4.88000   0.
    32.51000    -4.79500   0.
    35.77000    -4.66500   0.
    39.03000    -4.53000   0.
    42.29000    -4.34500   0.
    45.55000    -4.14000   0.
    48.81000    -4.09000   0.
    52.07000    -4.10500   0.
    55.33500    -4.14500   0.
    58.60000    -4.20000   0.
[...]
POINT_DATA      2188
CELL_DATA      4025
SCALARS Resistivity(ohm.m) double 1
LOOKUP_TABLE default
           461.96642           444.99553          2001.93849          1054.98322          1433.05172           324.98336           824.88645           819.70316           659.06154           444.74475           295.93347           769.02506          1215.36794           631.47286           613.80193          2253.83420           978.99903           687.74502           299.20706           572.64618           655.65502           393.79340           457.22978           379.58726           813.96048           368.60535          3385.40582           253.53154          2569.23039           193.96794           314.12637          1602.07166           938.43697          1412.88690           248.67474           338.66260           804.42452           988.10924           228.77163           657.41109           343.11030          1693.69036         43383.21588           495.16605           732.64639          1160.23665          1003.25078           252.97542          1481.31178           313.61781           641.36493           446.98582           389.81949           143.68129           356.99074           900.65816           453.41906           364.39798           318.29572           467.74752           897.78722           697.99913           418.84718           316.00146           668.48825         29403.45611           153.17140          2075.01586           756.62387           686.98052          2630.81199           684.02545           378.38422           316.57730           285.35893           369.30325           541.02578           364.79706           607.24411          3142.91392           377.59265           525.21549           695.76926           302.82862           762.88640           684.10147           200.15389           535.44713           217.35041           331.67668           326.87290           730.75303          1609.82493           667.39119           197.77533          1442.60515           858.22370           438.95193          1051.95038           454.58762           966.72371           585.59289          1184.85610          1132.45931           773.24824           380.21832          1623.43338          1381.38957          1584.42047           550.43640           309.36064          2014.51285           743.64538           370.45270           950.10503           717.12154         16280.77747           550.87304           796.28539           439.57649           402.89077          1358.22835          1849.39912           273.34546           205.24264          1903.38324           406.03062           415.68581           812.73445          1556.61444           889.89764           325.05305          1129.73228           440.54204           181.18611          1118.18797          1110.33453          1162.55219           970.90382          1051.41470           416.97791           209.46184           203.13708           226.81754           193.93206           686.40945           468.89696          1850.35729           204.64897          1499.53734          1247.13630           625.36325           660.71764           579.32063          1721.38424           417.42144          1284.72647           369.61281           503.04199          2589.19622           387.80232          1019.27543          1407.18842           529.04160           740.39436           275.35739          1034.15962          1005.19948          1364.38629           866.95367           427.09839           682.73628           702.07207           775.06824           276.14197           321.86474           274.83868           471.02869          1191.62179          1266.55952          1359.20379          1110.29158           201.44256           523.66802           321.52185           436.76008           768.77798           350.21375           677.98635           504.55429           261.04221           891.42761          1549.32280          2351.45891           351.58354          3400.22874           688.73915           676.71208         10758.65266          1013.23373           452.44041           288.24278           475.02047           628.32548           719.74404           537.37366           211.87179           415.99920          1176.96535          1246.44491          2841.90817           696.12109           589.37786          1477.57810           791.30821           201.11096          1118.72185           996.78550           274.47016          1144.57687          2198.79295          1504.29584           288.84661           506.46335           747.22249           614.73101           447.68253          8948.49108          2154.37994           541.74124          1999.35391           595.24497          1359.37743           526.02159           895.70210          1399.98985           475.38234           725.80587           693.34963           847.12790          1513.43627          1082.11088          1252.90339           769.03734           408.33436          1284.45794          3147.24322           741.82676          1104.65800          1438.19774           285.98821          1203.26147           336.39298           849.80769           445.98658           502.64132           652.86410         37255.13959           762.71349          1283.06685           244.49436           545.47055           630.01715          1472.22035           847.81821           720.82182           912.25395          1830.36964          1052.26942          2108.04925           282.37101          5388.23837          1904.79658           740.45649          1378.76309           505.50829          1947.40927          1413.81079           640.77403          1762.41279          5153.01706           735.50622           574.58338         34451.96230           908.75878           986.63314           650.56728           669.92870          1347.02130          1585.68290           311.33068           418.88528           712.35275           704.42941          1042.16991          1060.31233           364.71079           936.87463           430.00444           252.63578           326.00391           604.53695          1242.25286           518.56889           527.85412          1451.92698           460.66256           646.65400           309.64517           907.22081          6954.49197          4530.47159           736.93693          1162.89162           476.27740           404.57804          1080.04616           185.05402           946.29577           700.21895           299.79098          1446.75688          1494.88509           360.38714          1176.37128          1783.36238           183.78180           609.49066          2770.18003          1559.82275           194.52967           668.23955           282.66356           682.04074           201.80104           950.25301           874.17020          1493.90417          1502.79023          1404.51924           543.16636           684.09622          1496.32820          1256.38306           540.55943           682.88784           315.19766           193.93224           248.74807          1544.44614           300.52758          2108.15296          1424.51506           491.88214          1509.96079           616.00673          1490.60820           677.22694         15071.44326           703.56441           358.51047           429.64209           647.05218           663.73776           470.16092           445.54113           632.49743           258.27650          1443.16592          2110.07355           603.66436           305.94300           326.07031          1171.61403          2003.48601           233.15775           495.36551           255.23558           435.42027           517.28144           853.58759          1393.81206           254.40366          1096.59418          1574.00622           250.93123           530.53392           479.13451          2136.65027         51154.47342           775.67837           240.45425          1551.30183           532.53457           294.00206           692.08962           360.40131          2395.18653          8807.18197           661.23967           305.07069          1498.92076           193.64897           222.95789           805.96340           440.81758          1103.43046           280.52244           619.86841          1157.36565           422.53596           903.11057           202.37076           561.96459           292.97406           702.79944           773.41705           302.33206           495.02966          2141.59975          1476.14882           885.69265           501.28666           183.23640           750.60683          1362.73286           816.10981          2721.87138           398.99492           503.48481          1451.13247           320.92579           618.66199          1167.67514           594.34851           761.88358           575.39203          3531.03054           230.57134           625.13291           462.78729           785.70152           336.85726          1584.35809          1295.18909           882.98479          2015.26351           366.72952           328.74426          1799.14654          1537.22522           301.57748           197.77820           570.61331          1804.80912          1437.85014           298.44097           602.66069          1070.30627           901.99444           485.03401           424.04811           671.74507          5079.43411          9330.30025           199.41953           403.53062          1585.96867           289.15054           355.20371           722.82075           228.78894          1395.33446           342.29962           476.26952           800.24320           519.00228           445.49816           441.69435           891.86232           812.05088           636.31522           243.70224           625.52481           248.74655          1542.30367           481.57678           514.24615           404.39402         19535.28556         10047.89033          1306.27835           755.24148           422.46722           310.64087           650.91891           494.09360           536.45934           662.19325          1489.88538           910.72049           290.64407           882.07175           780.39649           686.18309           332.15539           583.99239          1693.56450          1492.36823           999.85210           651.15271           687.29623           678.98735           685.62493           694.29829           324.71239           345.39955           375.19684           288.38310          1453.09004           465.66372           306.28953           711.25952          1491.39929           535.08213           284.84785           685.35293          1372.88835           282.76746          1557.23853           675.04033           327.87828          6405.29196          1222.85843          1480.97192           580.35871          3223.23163          1355.79620          1410.58932           717.30787           417.80783           202.34634           181.82413           377.05811           169.75992           637.58707          1466.53155          1695.58884          2291.92728           188.47294           266.25373           718.37325           589.98423           639.18158           572.39645          1490.16035           887.61625           224.13378           416.10598           196.86133           483.61119           583.41897           203.54172           582.83729           292.74286          1363.46976           682.73346           783.18786           346.20312          1210.78079           683.39784           233.07868          1371.05083           466.36377           285.46737          1019.43111           605.31098           228.44792          1522.39154          1491.02437           523.18179           551.09736           735.85480          1469.38919           688.88753          4840.77485          4295.96783           685.81837          1451.90396           699.86470           547.10823           623.49629           750.89114           533.83022           567.43233           655.19604          1706.79010           356.27400          1275.23917           701.70122           520.78304           232.59780           661.68821           679.51920           669.30249           368.46482           229.21581           383.15710          1479.50888           689.58889          1478.10880           325.64919          1483.45289           367.48802           480.27602           706.97844           630.37051           859.81375           849.70701           618.03450           798.44978           296.21042           741.46605          1487.53747          1266.43667          5185.84558          3276.40399           640.06391           648.00298           441.76254           289.27565          1474.93883           392.64753           459.16695           530.37415           687.56458           689.62049          1352.63191           602.11849           681.15980          1500.16347           688.35378           209.24247           218.03272          1716.53099           627.62726           272.69267           436.14341           584.06134         11507.59246          1475.10550           232.56754          2018.13459           792.42445           489.84267          1514.68417           856.89750           195.61681          1509.35892           226.48270           257.12639           893.27294           345.61899           564.57843           723.46158           621.54962          2189.63997          1465.31155          1459.65399           376.93723           366.50043          3673.14902           695.72212           733.50321          1480.80763           290.67645          1069.69538          1456.98928          1469.22909           697.03293           634.98736          2074.28173          6224.44939           611.43980          4341.47950           553.02302           428.21604           468.61654          1487.15007           524.18040          1531.55073           618.03523           842.82991           685.10534           561.61548           686.01143          1444.30143          1472.16194           665.51909          1539.59979           932.29699           827.71242          1834.35576           404.16516           188.72043           524.75801          1436.35069           674.21657           672.07737           257.65952           646.29756           267.70849           681.80573          1563.38857           382.44056          1425.94828           212.01354           379.83290           872.47456           608.45722           336.40386           391.94035           861.50237           559.89993           188.95089          1503.98835           692.58162           690.31218           581.49486           635.02894          1467.10010          1629.92893          1281.75744           424.77138           977.05854         25211.51738           411.58123          1484.47662           869.82737          1675.84015           678.41683          1392.69311          3415.40872           315.95068           689.06362           726.50999           569.12352          1663.98159           827.55271           406.48795          1526.01825           258.69277           389.69169           648.06758           418.29730          2654.60222           555.65146           223.66746          1470.97025           473.70003           377.80017           658.16511           662.58786           522.84449          1043.77247          2227.00483           379.33717           590.06420           417.18988          1970.16212          1806.24263           516.73874         71829.48373           628.39622           273.04564          1924.43928           674.11320           291.23971           626.17598           499.21323           428.19584           334.55711           844.91907          1835.88407           688.90985           680.81297           240.51250          1576.88028           222.09833           473.29945           313.53119          1421.06433           973.09720          1502.37782          1067.59093          3566.88192          1521.98333           249.23008           251.03207           577.78266           658.49790          1908.01863           282.66668           682.88758           468.41347          4135.56903          3996.30598           445.92612           657.93675           216.18514           692.81910           293.62587          1259.45758          1623.69056           499.01241           377.81953          1473.14738           939.81356           547.36872           690.56719           293.77597           689.16493           285.43016           183.00786           765.48320          5226.99434           689.97366          1221.69846           733.42025          1398.74445          1489.71781           317.10970           995.16697           270.36035           682.35190           311.49441           346.78563          1506.47920          2144.29353           680.32074           206.92839           820.39711          2286.48134           661.91593           364.03111           411.16853           633.91410          1593.27669           343.36874           669.21291           352.35921           612.54004           550.35106           692.24740          1475.38435          1701.77529           712.91711          2796.60510          1989.91924           974.35191           297.23337          1310.58909           444.80329           281.11094           574.34520           581.51129           683.10274          1734.33850          2980.11651           476.11346           300.09365          1223.49420          1481.06657           690.43291          1549.87711          2410.92083           719.16640          2085.36320           695.02067          2307.02864           342.88438          1469.66243           263.20100           291.87142          1468.50596          2022.82913           736.57717           691.88986           850.48929          1881.90056           685.38370           692.03137           811.00460          1410.64844           409.29220           261.13849          1845.65238           549.92705           225.60477           352.22457           689.37466           713.55327           405.15087           706.09718           595.22637           876.82586          1479.69004           460.68170           691.78176           717.80566           767.25518          1486.72545          7178.12851           392.75149          1470.16146           263.39579           641.72662          1480.59744           648.06889          1519.29528          1524.32107          1650.14356           777.85052           512.47384         12992.13796           694.41078           746.90891           455.34454           728.38698           659.38943           596.13051          1483.89940           789.88635          2364.66678          1486.70134          1503.59849           884.83371          1503.91292          4254.44929          1549.30650           675.97354           412.12492           373.65349           325.10598           769.24943          1461.86545           305.25451           720.29922           525.57732           720.90233           654.50177          1462.01737          1489.68101           755.02029          1667.04689           683.51814           584.62162           575.71660          1472.67837          1463.14962           367.13987          1546.53729           645.92338          1711.52818          1464.21227           694.00692           460.37150           668.27134           253.95425           386.18191           510.84581          1586.23393           555.55783           807.42309           431.99924           667.66798           688.50399           685.99493           799.22750           687.53085          1892.14199           580.46124           472.61653           487.46032           679.99436           258.77807           333.81710           321.74689           236.25538           690.32298          2222.42772           439.67313          4284.11691           694.00554           353.05998  