# vtk DataFile Version 3.0
Output from R2
ASCII
DATASET UNSTRUCTURED_GRID
POINTS       2188 double
    -5.00000     0.00000   0.
     0.00000     0.00000   0.
     1.00000     0.05000   0.
     2.00000     0.10000   0.
     3.00000     0.12000   0.
     4.00000     0.14000   0.
     5.00000     0.18000   0.
     6.00000     0.22000   0.
     7.00000     0.20000   0.
     8.00000     0.18000   0.
     9.00000     0.11000   0.
    10.00000     0.05000   0.
    11.00000     0.02000   0.
    12.00000    -0.01000   0.
    13.00000    -0.06000   0.
    14.00000    -0.11000   0.
    15.00000    -0.15000   0.
    16.00000    -0.19000   0.
    17.00000    -0.15000   0.
    18.00000    -0.11000   0.
    19.00000    -0.05000   0.
    20.00000     0.00000   0.
    21.00000    -0.07000   0.
    22.00000    -0.13000   0.
    23.00000    -0.08000   0.
    24.00000    -0.03000   0.
    25.00000     0.03000   0.
    26.00000     0.09000   0.
    27.00000     0.09000   0.
    28.00000     0.09000   0.
    29.00000     0.12000   0.
    30.00000     0.15000   0.
    31.00000     0.16000   0.
    32.00000     0.16000   0.
    33.00000     0.21000   0.
    34.00000     0.26000   0.
    35.00000     0.24000   0.
    36.00000     0.22000   0.
    37.00000     0.35000   0.
    37.99000     0.48000   0.
    38.99000     0.48000   0.
    39.99000     0.48000   0.
    40.99000     0.55000   0.
    41.99000     0.62000   0.
    42.98000     0.73000   0.
    43.98000     0.78000   0.
    44.98000     0.83000   0.
    45.98000     0.88000   0.
    46.98000     0.93000   0.
    47.98000     0.98000   0.
    48.98000     0.94000   0.
    49.98000     0.90000   0.
    50.98000     0.86000   0.
    51.98000     0.82000   0.
    52.98000     0.88000   0.
    53.98000     0.93000   0.
    54.98000     0.89000   0.
    55.98000     0.85000   0.
    56.98000     0.80000   0.
    57.98000     0.75000   0.
    58.98000     0.78000   0.
    59.98000     0.80000   0.
    60.98000     0.80000   0.
    61.98000     0.80000   0.
    62.99000     0.81000   0.
    63.99000     0.82000   0.
    64.99000     0.81000   0.
    65.99000     0.81000   0.
    66.99000     0.83000   0.
    67.99000     0.85000   0.
    68.99000     0.87000   0.
    69.99000     0.90000   0.
    70.99000     1.00000   0.
    71.98000     1.10000   0.
    72.98000     1.20000   0.
    73.98000     1.29000   0.
    74.98000     1.34000   0.
    75.97000     1.40000   0.
    76.97000     1.46000   0.
    77.97000     1.51000   0.
    78.97000     1.41000   0.
    79.97000     1.32000   0.
    80.97000     1.37000   0.
    81.97000     1.42000   0.
    82.97000     1.37000   0.
    83.97000     1.32000   0.
    84.97000     1.35000   0.
    85.97000     1.37000   0.
    86.97000     1.40000   0.
    87.97000     1.42000   0.
    88.97000     1.39000   0.
    89.97000     1.37000   0.
    90.97000     1.42000   0.
    91.97000     1.47000   0.
    92.97000     1.48000   0.
    93.97000     1.49000   0.
    94.97000     1.50000   0.
    95.98000     1.50000   0.
    96.98000     1.52000   0.
    97.98000     1.54000   0.
    98.98000     1.54000   0.
    99.98000     1.54000   0.
   100.98000     1.58000   0.
   101.98000     1.61000   0.
   102.98000     1.60000   0.
   103.98000     1.59000   0.
   104.98000     1.62000   0.
   105.98000     1.64000   0.
   106.98000     1.68000   0.
   107.98000     1.71000   0.
   108.98000     1.73000   0.
   109.99000     1.76000   0.
   110.99000     1.81000   0.
   111.99000     1.85000   0.
   112.99000     1.84000   0.
   113.99000     1.83000   0.
   114.99000     1.84000   0.
   115.99000     1.85000   0.
   116.99000     1.86000   0.
   117.99000     1.86000   0.
   118.99000     1.83000   0.
   119.99000     1.81000   0.
   120.99000     1.86000   0.
   121.99000     1.91000   0.
   122.99000     1.96000   0.
   123.99000     2.03000   0.
   124.99000     2.14000   0.
   125.98000     2.25000   0.
   126.98000     2.34000   0.
   131.98000     2.34000   0.
    -5.00000    -5.00000   0.
    -1.74000    -5.00000   0.
     1.52000    -4.92000   0.
     4.78000    -4.83000   0.
     8.05000    -4.82000   0.
    11.31000    -4.99000   0.
    14.57000    -5.13000   0.
    17.83000    -5.12000   0.
    21.09000    -5.07000   0.
    24.35000    -5.01000   0.
    27.61000    -4.91000   0.
    30.88000    -4.85000   0.
    34.14000    -4.74000   0.
    37.40000    -4.59000   0.
    40.66000    -4.47000   0.
    43.92000    -4.22000   0.
    47.18000    -4.06000   0.
    50.44000    -4.12000   0.
    53.70000    -4.09000   0.
    56.97000    -4.20000   0.
    60.23000    -4.20000   0.
    63.49000    -4.18000   0.
    66.75000    -4.17000   0.
    70.01000    -4.10000   0.
    73.27000    -3.77000   0.
    76.53000    -3.57000   0.
    79.79000    -3.66000   0.
    83.06000    -3.64000   0.
    86.32000    -3.62000   0.
    89.58000    -3.62000   0.
    92.84000    -3.52000   0.
    96.10000    -3.50000   0.
    99.36000    -3.46000   0.
   102.62000    -3.40000   0.
   105.89000    -3.36000   0.
   109.15000    -3.26000   0.
   112.41000    -3.16000   0.
   115.67000    -3.15000   0.
   118.93000    -3.17000   0.
   122.19000    -3.08000   0.
   125.45000    -2.81000   0.
   128.71000    -2.66000   0.
   131.98000    -2.66000   0.
  -639.88000     0.00000   0.
  -639.88000  -385.93000   0.
   766.86000     2.34000   0.
   766.86000  -385.93000   0.
    -3.07439     0.00000   0.
    -1.69523     0.00000   0.
    -0.70746     0.00000   0.
     0.50000     0.02500   0.
     1.50000     0.07500   0.
     2.50000     0.11000   0.
     3.50000     0.13000   0.
     4.50000     0.16000   0.
     5.50000     0.20000   0.
     6.50000     0.21000   0.
     7.50000     0.19000   0.
     8.50000     0.14500   0.
     9.50000     0.08000   0.
    10.50000     0.03500   0.
    11.50000     0.00500   0.
    12.50000    -0.03500   0.
    13.50000    -0.08500   0.
    14.50000    -0.13000   0.
    15.50000    -0.17000   0.
    16.50000    -0.17000   0.
    17.50000    -0.13000   0.
    18.50000    -0.08000   0.
    19.50000    -0.02500   0.
    20.50000    -0.03500   0.
    21.50000    -0.10000   0.
    22.50000    -0.10500   0.
    23.50000    -0.05500   0.
    24.50000     0.00000   0.
    25.50000     0.06000   0.
    26.50000     0.09000   0.
    27.50000     0.09000   0.
    28.50000     0.10500   0.
    29.50000     0.13500   0.
    30.50000     0.15500   0.
    31.50000     0.16000   0.
    32.50000     0.18500   0.
    33.50000     0.23500   0.
    34.50000     0.25000   0.
    35.50000     0.23000   0.
    36.50000     0.28500   0.
    37.49500     0.41500   0.
    38.49000     0.48000   0.
    39.49000     0.48000   0.
    40.49000     0.51500   0.
    41.49000     0.58500   0.
    42.48500     0.67500   0.
    43.48000     0.75500   0.
    44.48000     0.80500   0.
    45.48000     0.85500   0.
    46.48000     0.90500   0.
    47.48000     0.95500   0.
    48.48000     0.96000   0.
    49.48000     0.92000   0.
    50.48000     0.88000   0.
    51.48000     0.84000   0.
    52.48000     0.85000   0.
    53.48000     0.90500   0.
    54.48000     0.91000   0.
    55.48000     0.87000   0.
    56.48000     0.82500   0.
    57.48000     0.77500   0.
    58.48000     0.76500   0.
    59.48000     0.79000   0.
    60.48000     0.80000   0.
    61.48000     0.80000   0.
    62.48500     0.80500   0.
    63.49000     0.81500   0.
    64.49000     0.81500   0.
    65.49000     0.81000   0.
    66.49000     0.82000   0.
    67.49000     0.84000   0.
    68.49000     0.86000   0.
    69.49000     0.88500   0.
    70.49000     0.95000   0.
    71.48500     1.05000   0.
    72.48000     1.15000   0.
    73.48000     1.24500   0.
    74.48000     1.31500   0.
    75.47500     1.37000   0.
    76.47000     1.43000   0.
    77.47000     1.48500   0.
    78.47000     1.46000   0.
    79.47000     1.36500   0.
    80.47000     1.34500   0.
    81.47000     1.39500   0.
    82.47000     1.39500   0.
    83.47000     1.34500   0.
    84.47000     1.33500   0.
    85.47000     1.36000   0.
    86.47000     1.38500   0.
    87.47000     1.41000   0.
    88.47000     1.40500   0.
    89.47000     1.38000   0.
    90.47000     1.39500   0.
    91.47000     1.44500   0.
    92.47000     1.47500   0.
    93.47000     1.48500   0.
    94.47000     1.49500   0.
    95.47500     1.50000   0.
    96.48000     1.51000   0.
    97.48000     1.53000   0.
    98.48000     1.54000   0.
    99.48000     1.54000   0.
   100.48000     1.56000   0.
   101.48000     1.59500   0.
   102.48000     1.60500   0.
   103.48000     1.59500   0.
   104.48000     1.60500   0.
   105.48000     1.63000   0.
   106.48000     1.66000   0.
   107.48000     1.69500   0.
   108.48000     1.72000   0.
   109.48500     1.74500   0.
   110.49000     1.78500   0.
   111.49000     1.83000   0.
   112.49000     1.84500   0.
   113.49000     1.83500   0.
   114.49000     1.83500   0.
   115.49000     1.84500   0.
   116.49000     1.85500   0.
   117.49000     1.86000   0.
   118.49000     1.84500   0.
   119.49000     1.82000   0.
   120.49000     1.83500   0.
   121.49000     1.88500   0.
   122.49000     1.93500   0.
   123.49000     1.99500   0.
   124.49000     2.08500   0.
   125.48500     2.19500   0.
   126.48000     2.29500   0.
   127.68746     2.34000   0.
   128.67523     2.34000   0.
   130.05439     2.34000   0.
    -3.37000    -5.00000   0.
    -0.11000    -4.96000   0.
     3.15000    -4.87500   0.
     6.41500    -4.82500   0.
     9.68000    -4.90500   0.
    12.94000    -5.06000   0.
    16.20000    -5.12500   0.
    19.46000    -5.09500   0.
    22.72000    -5.04000   0.
    25.98000    -4.96000   0.
    29.24500    -4.88000   0.
    32.51000    -4.79500   0.
    35.77000    -4.66500   0.
    39.03000    -4.53000   0.
    42.29000    -4.34500   0.
    45.55000    -4.14000   0.
    48.81000    -4.09000   0.
    52.07000    -4.10500   0.
    55.33500    -4.14500   0.
    58.60000    -4.20000   0.
[...]
POINT_DATA      2188
CELL_DATA      4025
SCALARS Resistivity(ohm.m) double 1
LOOKUP_TABLE default
           361.83343           478.44368          1213.25785           668.95362           870.83418           355.52620           549.75348           546.01492           464.07475           352.93432           292.69531           538.18494           753.36188           449.69317           435.13076          1354.37338           623.39858           484.08517           302.24087           414.03417           464.50420           462.42755           354.78683           318.05056           545.56220           433.00117          2200.17735           249.59709          1578.81800           199.87537           373.06384           965.24007           600.95465           860.54103           234.03323           384.80291           536.58963           617.94060           210.86116           465.75971           298.59988          1009.89772         43470.55707           971.39473           504.54273           724.48316           599.79649           234.73603           889.60460           320.82872           454.67633           348.37681           383.69684           161.61307           347.28826           581.75273           356.28062           426.27955           333.74982           444.82165           586.94854           489.42669           409.15981           368.24446           469.59510         27664.74514           183.85371          1262.81363           591.93908           483.71086          1631.96040           493.76065           371.13612           328.90151           343.38724           314.62385           463.69031           371.61487           475.41936          2016.64899           397.59393           799.53930           488.56609           310.87594           562.82731           481.93204           225.71981           399.52512           206.05236           352.14003           297.95531           499.22785           972.87536           471.70785           208.50292           830.55155           567.93293           425.23726           668.10343           427.26157           619.33340           416.77283           683.43914           657.03321           765.82642           369.98097           981.08360           841.72199           952.81812           401.68062           310.43768          1223.81815           510.33968           393.07886           614.43113           492.53353         13194.20776           407.45775           535.70236           410.94141           428.20079           823.22484          1119.28748           269.60533           223.98584          1149.09521           399.46906           481.25156           591.52928           941.27888           569.07368           376.18427           674.18068           350.39341           181.03555           700.20118           680.73250           715.81662           596.88642           643.77532           470.76671           189.67765           193.08361           271.98307           245.95416           483.26616           431.80083          1088.26787           247.14412           906.74087           721.11271           484.49132           453.47852           411.87877          1040.09565           340.36733           783.17001           401.90495           873.99659          1610.53400           366.98283           606.75607           857.51903           441.46750           505.96361           277.88992           650.87835           642.34905           834.28057           625.20599           467.24852           479.79943           490.94507           608.32018           355.47670           333.87944           329.74803           462.56112           736.38236           781.82553           786.47670           697.51740           195.40849           914.12172           300.53890           618.65574           503.79749           357.90450           542.56785           742.61461           317.56000           632.17740           937.10733          1437.09764           397.50879          2209.94201           484.71807           476.50304          8889.36153           644.80042           410.39231           362.78733           436.23739           438.91567           680.02884           503.44005           255.12987           436.75676           712.23623           750.02292          1787.76397           471.76868           446.26330           894.78764           534.31491           206.68862           674.67881           600.45179           296.64757           709.53772          1308.16348           910.46259           283.10039           441.91044           589.35310           437.93993           418.10820          7419.22581          1299.26169           392.49108          1213.02872           534.51912           831.26558           447.48049           552.96583           843.27783           429.46157           501.96001           487.52382           609.21804           915.99878           677.66829           715.36061           504.37772           404.71643           791.10676          2014.58941           503.08571           682.58613           874.16440           254.70743           708.83875           355.24064           645.60789           488.83598           464.47566           462.34920         39774.79014           702.75399           774.77934           275.31815           422.23107           444.74640           892.08355           546.66103           499.80621           607.40679          1106.68285           648.86561          1261.19342           260.96127          3848.06294          1154.01432           482.75866           841.51805           370.79600          1180.83557           813.20505           447.42673          1065.28577          3896.11812           502.58723           407.89639         28416.63291           565.94870           609.47201           452.39051           472.91458           824.96547           958.98961           319.23926           338.36871           498.53387           492.26482           620.82298           626.21462           312.71940           570.91304           335.88456           257.99592           320.65676           796.59870           757.30628           431.44314           459.82807           881.50384           403.72161           435.40708           305.53579           580.95896          5537.91740          3123.01282           507.33697           666.50853           356.85337           330.32026           634.44641           182.32577           602.30988           591.57395           359.49166           878.71614           905.07370           348.95676           730.36405          1076.65205           181.43927           438.64836          1738.75081           943.44845           195.67371           500.35247           275.81196           493.69063           207.13056           615.22531           552.02451           903.36425           909.99849           855.97733           466.55514           482.16370           905.01833           770.52106           463.60328           481.50594           315.75262           255.66729           309.02929           934.62445           318.89022          1281.42167           866.78233           365.67240           909.04082           442.14061           902.41626           478.10721         13332.27961           474.87890           343.22627           334.74062           437.24242           467.61639           361.78645           434.25965           447.92053           325.85193           876.94716          1250.15113           469.28433           370.53752           326.01191           699.38781          1689.61666           222.87227           378.03860           256.59227           428.05113           434.02640           565.12324           850.20043           316.93737           645.89545           951.54345           293.16859           471.25648           369.29135          1297.63667         57284.84212           509.71087           232.77579           938.82844           629.41036           358.52216           486.87941           399.83880          1474.25588          6981.86525           467.15553           308.80028           875.42509           245.82780           255.77762           564.89886           396.60582           695.30867           363.81280           444.39113           723.61563           421.78657           591.11353           257.26746           413.34190           293.32559           491.82134           497.82476           350.22581           372.27541          1282.43382           894.67072           579.36431           436.08894           178.32641           508.70235           808.01727           534.77216          1692.85615           381.30331           464.80816           881.09059           299.36194           423.38979           679.76802           430.25874           635.86128           420.35941          2935.42625           331.25156           431.00996           435.31661           528.14890           304.43613           930.28762           793.21228           550.08619          1211.10566           310.22200           302.21398          1087.88246           918.50469           331.89381           233.43806           417.96338          1088.49291           874.06339           382.82874           469.73345           673.84254           565.39678           415.02177           398.46843           472.29833          3632.93264          7491.59243           250.56000           401.61839           958.79019           367.80460           365.45851           521.24955           248.64248           851.00253           375.00285           360.04661           647.05238           383.57477           394.08438           349.70424           577.98142           519.67590           594.65449           240.98253           445.06584           318.48208           877.23757           371.74285           387.66868           464.55091         18246.42088          8190.19113           803.11636           516.47495           419.71392           322.73144           485.82041           466.80807           444.93122           468.68135           900.53376           590.96410           258.05233           575.14937           663.16799           483.17562           282.40641           424.95785          1008.67198           903.08365           641.12638           461.05079           483.66291           478.96931           481.73590           488.10303           368.09652           365.01148           309.38378           367.04946           829.41577           353.36496           306.02941           495.59731           901.68040           387.68243           310.88453           482.81098           838.78610           293.03836           940.18408           476.72547           300.49147          5179.68713           711.92124           895.75683           459.87124          2069.95618           826.21757           859.22896           498.40264           421.72089           186.30139           197.11119           392.25780           202.76190           436.38044           886.32247          1024.31963          1400.69046           186.66778           272.42474           480.20117           492.78781           452.67069           485.87049           901.09266           562.40886           256.49788           424.53970           255.53921           368.46594           423.18052           259.02240           421.65095           303.86388           818.91183           704.54260           659.42502           307.88756           752.15857           481.31202           250.37354           837.90221           666.93575           315.12987           616.56702           434.82022           221.48803           921.74329           903.22889           387.63822           400.43250           482.09143           890.60967           484.77990          3379.43744          2926.03929           483.09082           881.54751           490.60466           462.36783           575.06707           740.32378           852.97220           945.90463           840.06908          1031.16373           311.75449           783.96115           491.16662           391.85670           279.35288           467.75397           479.50133           471.43317           350.50411           231.38836           311.47577           896.14139           485.28164           894.50758           361.64102           896.83129           316.60567           655.92058           493.70420           449.42887           568.01561           560.62514           434.19319           521.29523           300.27719           509.74025           898.89787           781.06118          3674.68175          2945.59759           469.07618           460.05572           537.59113           300.57693           893.20178           402.52252           492.93394           492.79934           483.80964           485.31679           827.86755           434.18655           480.50529           907.42887           484.37227           295.52454           209.74182          1036.12651           560.08937           267.69716           430.04635           430.36189          9539.51567           893.26538           228.24237          1217.64785           512.58022           472.18215           916.34769           558.57552           192.68615           913.09042           225.84720           241.72892           597.78630           404.13406           398.67526           501.21988           427.06956          1336.72730           888.78977           885.94005           366.67234           315.44331          2425.18624           488.89723           491.79224           896.60070           337.86572           640.75037           884.36205           890.80141           489.39374           515.34623          1261.94144          4584.04549           439.75315          3026.76792           458.48972           871.87884           373.49624           899.31655           451.69939           926.67364           456.39862           639.30019           459.86190           410.16345           481.19182           877.47979           892.05736           470.84596           931.13394           614.78694           519.89032          1658.68275           539.48721           249.44372           393.42809           873.09998           475.40545           474.90489           298.50912           458.90583           248.19426           468.99433           945.16909           384.17220           867.51665           271.02947           459.06946           546.77058           750.88125           303.67782           327.68999           715.25945           412.33991           251.85204           909.82311           487.33219           485.79630           408.23795           452.84895           889.92961           984.50789           764.64075           334.44064           613.30120         21440.39795           335.72045           899.04294           562.85866          1012.18569           531.76097           844.75700          2224.94825           300.72674           484.89420           472.19957           465.52422          1005.17112           528.52182           384.38749           923.30145           274.08988           499.39138           460.36531           340.29568          1659.77926           406.11389           238.10125           891.38138           367.96369           471.82245           466.35771           461.66174           393.10221           652.68879          1363.64240           321.79473           428.23954           447.67592          1195.57408          1092.41722           997.54070         90184.02371           449.09706           325.57526          1165.94245           523.18036           338.18442           660.41433           437.58783           953.37751           334.43232           556.98123          1059.79725           484.55065           479.83361           235.11972           953.16235           223.22599           533.82973           298.90382           864.89122           586.55052           908.93056           627.61472          2337.19735           920.70966           292.51634           255.76924           406.14575           462.73273          1149.10363           341.98933           477.20548           984.00628          2798.69820          2682.21788           353.95774           461.09253           215.75035           484.84181           306.24278           742.38535           970.23270           380.84548           369.44999           892.75314           589.17372           405.83067           484.39053           321.24546           484.21732           293.87497           241.93555           487.90825          3864.92929           485.27038           755.58635           727.12132           820.93223           902.29490           273.18084           625.80760           277.79156           477.91896           301.61487           330.67233           911.54646          1584.05060           479.89793           227.05045           664.39994          1403.25782           468.61587           298.88424           399.14671           450.40501           962.81543           350.16645           473.09622           377.68727           427.19529           434.74311           486.70448           894.22709          1028.04209           619.00589          1761.61964          1382.16104           586.99207           265.33447           803.88643           341.32935           268.31427           406.10417           423.68766           494.52007          1048.01577          1896.26911           891.34543           327.95484           692.75441           895.96009           485.14031           937.19199          1488.90900           467.89929          1269.86471           481.33021          1417.58097           291.11032           890.84034           249.17776           316.72720           890.33389          1229.32388           555.07415           486.84445           546.93884          1139.65648           482.18241           486.38609           535.69112           840.61170           410.08680           241.31887          1116.95550           392.26673           220.64369           342.18153           454.08933           494.95481           333.88378           518.64682           430.92936           585.54720           895.63405           880.21660           485.35741           493.97273           718.28788           898.42053          5450.56826           326.98501           891.27008           304.95439           456.65268           897.40159           688.22845           919.71163           923.23367           996.64029           513.49832           465.27880         11103.48448           486.09502           522.01835           350.36710           824.52102           932.19046           918.60957           835.62846           709.53501          1455.97667           898.55929           911.06386           577.76218           910.80265          2905.18729           937.54781           477.17972           326.66200           378.79303           283.82053           523.29090           886.83991           412.32195           495.96349           734.11074           487.78567           464.13820           887.04516           902.78298           513.88880          1005.76271           481.83177           520.16264           457.25616           892.88300           888.02701           398.08298           935.24758           504.71042           977.99185           888.43715           488.20876           361.18216           471.65443           281.06011           347.31150           386.88850           937.86913           409.66722           507.85423           346.96336           468.10309           480.68416           472.67982           504.26609           483.86168          1104.70158           422.89875           579.61370           374.93522           556.50146           347.32381           339.36214           296.85571           204.60241           485.79359          1425.72120           403.40938          3025.87676           488.10700           361.88008  