# vtk DataFile Version 3.0
Output from R2
ASCII
DATASET UNSTRUCTURED_GRID
POINTS       2188 double
    -5.00000     0.00000   0.
     0.00000     0.00000   0.
     1.00000     0.05000   0.
     2.00000     0.10000   0.
     3.00000     0.12000   0.
     4.00000     0.14000   0.
     5.00000     0.18000   0.
     6.00000     0.22000   0.
     7.00000     0.20000   0.
     8.00000     0.18000   0.
     9.00000     0.11000   0.
    10.00000     0.05000   0.
    11.00000     0.02000   0.
    12.00000    -0.01000   0.
    13.00000    -0.06000   0.
    14.00000    -0.11000   0.
    15.00000    -0.15000   0.
    16.00000    -0.19000   0.
    17.00000    -0.15000   0.
    18.00000    -0.11000   0.
    19.00000    -0.05000   0.
    20.00000     0.00000   0.
    21.00000    -0.07000   0.
    22.00000    -0.13000   0.
    23.00000    -0.08000   0.
    24.00000    -0.03000   0.
    25.00000     0.03000   0.
    26.00000     0.09000   0.
    27.00000     0.09000   0.
    28.00000     0.09000   0.
    29.00000     0.12000   0.
    30.00000     0.15000   0.
    31.00000     0.16000   0.
    32.00000     0.16000   0.
    33.00000     0.21000   0.
    34.00000     0.26000   0.
    35.00000     0.24000   0.
    36.00000     0.22000   0.
    37.00000     0.35000   0.
    37.99000     0.48000   0.
    38.99000     0.48000   0.
    39.99000     0.48000   0.
    40.99000     0.55000   0.
    41.99000     0.62000   0.
    42.98000     0.73000   0.
    43.98000     0.78000   0.
    44.98000     0.83000   0.
    45.98000     0.88000   0.
    46.98000     0.93000   0.
    47.98000     0.98000   0.
    48.98000     0.94000   0.
    49.98000     0.90000   0.
    50.98000     0.86000   0.
    51.98000     0.82000   0.
    52.98000     0.88000   0.
    53.98000     0.93000   0.
    54.98000     0.89000   0.
    55.98000     0.85000   0.
    56.98000     0.80000   0.
    57.98000     0.75000   0.
    58.98000     0.78000   0.
    59.98000     0.80000   0.
    60.98000     0.80000   0.
    61.98000     0.80000   0.
    62.99000     0.81000   0.
    63.99000     0.82000   0.
    64.99000     0.81000   0.
    65.99000     0.81000   0.
    66.99000     0.83000   0.
    67.99000     0.85000   0.
    68.99000     0.87000   0.
    69.99000     0.90000   0.
    70.99000     1.00000   0.
    71.98000     1.10000   0.
    72.98000     1.20000   0.
    73.98000     1.29000   0.
    74.98000     1.34000   0.
    75.97000     1.40000   0.
    76.97000     1.46000   0.
    77.97000     1.51000   0.
    78.97000     1.41000   0.
    79.97000     1.32000   0.
    80.97000     1.37000   0.
    81.97000     1.42000   0.
    82.97000     1.37000   0.
    83.97000     1.32000   0.
    84.97000     1.35000   0.
    85.97000     1.37000   0.
    86.97000     1.40000   0.
    87.97000     1.42000   0.
    88.97000     1.39000   0.
    89.97000     1.37000   0.
    90.97000     1.42000   0.
    91.97000     1.47000   0.
    92.97000     1.48000   0.
    93.97000     1.49000   0.
    94.97000     1.50000   0.
    95.98000     1.50000   0.
    96.98000     1.52000   0.
    97.98000     1.54000   0.
    98.98000     1.54000   0.
    99.98000     1.54000   0.
   100.98000     1.58000   0.
   101.98000     1.61000   0.
   102.98000     1.60000   0.
   103.98000     1.59000   0.
   104.98000     1.62000   0.
   105.98000     1.64000   0.
   106.98000     1.68000   0.
   107.98000     1.71000   0.
   108.98000     1.73000   0.
   109.99000     1.76000   0.
   110.99000     1.81000   0.
   111.99000     1.85000   0.
   112.99000     1.84000   0.
   113.99000     1.83000   0.
   114.99000     1.84000   0.
   115.99000     1.85000   0.
   116.99000     1.86000   0.
   117.99000     1.86000   0.
   118.99000     1.83000   0.
   119.99000     1.81000   0.
   120.99000     1.86000   0.
   121.99000     1.91000   0.
   122.99000     1.96000   0.
   123.99000     2.03000   0.
   124.99000     2.14000   0.
   125.98000     2.25000   0.
   126.98000     2.34000   0.
   131.98000     2.34000   0.
    -5.00000    -5.00000   0.
    -1.74000    -5.00000   0.
     1.52000    -4.92000   0.
     4.78000    -4.83000   0.
     8.05000    -4.82000   0.
    11.31000    -4.99000   0.
    14.57000    -5.13000   0.
    17.83000    -5.12000   0.
    21.09000    -5.07000   0.
    24.35000    -5.01000   0.
    27.61000    -4.91000   0.
    30.88000    -4.85000   0.
    34.14000    -4.74000   0.
    37.40000    -4.59000   0.
    40.66000    -4.47000   0.
    43.92000    -4.22000   0.
    47.18000    -4.06000   0.
    50.44000    -4.12000   0.
    53.70000    -4.09000   0.
    56.97000    -4.20000   0.
    60.23000    -4.20000   0.
    63.49000    -4.18000   0.
    66.75000    -4.17000   0.
    70.01000    -4.10000   0.
    73.27000    -3.77000   0.
    76.53000    -3.57000   0.
    79.79000    -3.66000   0.
    83.06000    -3.64000   0.
    86.32000    -3.62000   0.
    89.58000    -3.62000   0.
    92.84000    -3.52000   0.
    96.10000    -3.50000   0.
    99.36000    -3.46000   0.
   102.62000    -3.40000   0.
   105.89000    -3.36000   0.
   109.15000    -3.26000   0.
   112.41000    -3.16000   0.
   115.67000    -3.15000   0.
   118.93000    -3.17000   0.
   122.19000    -3.08000   0.
   125.45000    -2.81000   0.
   128.71000    -2.66000   0.
   131.98000    -2.66000   0.
  -639.88000     0.00000   0.
  -639.88000  -385.93000   0.
   766.86000     2.34000   0.
   766.86000  -385.93000   0.
    -3.07439     0.00000   0.
    -1.69523     0.00000   0.
    -0.70746     0.00000   0.
     0.50000     0.02500   0.
     1.50000     0.07500   0.
     2.50000     0.11000   0.
     3.50000     0.13000   0.
     4.50000     0.16000   0.
     5.50000     0.20000   0.
     6.50000     0.21000   0.
     7.50000     0.19000   0.
     8.50000     0.14500   0.
     9.50000     0.08000   0.
    10.50000     0.03500   0.
    11.50000     0.00500   0.
    12.50000    -0.03500   0.
    13.50000    -0.08500   0.
    14.50000    -0.13000   0.
    15.50000    -0.17000   0.
    16.50000    -0.17000   0.
    17.50000    -0.13000   0.
    18.50000    -0.08000   0.
    19.50000    -0.02500   0.
    20.50000    -0.03500   0.
    21.50000    -0.10000   0.
    22.50000    -0.10500   0.
    23.50000    -0.05500   0.
    24.50000     0.00000   0.
    25.50000     0.06000   0.
    26.50000     0.09000   0.
    27.50000     0.09000   0.
    28.50000     0.10500   0.
    29.50000     0.13500   0.
    30.50000     0.15500   0.
    31.50000     0.16000   0.
    32.50000     0.18500   0.
    33.50000     0.23500   0.
    34.50000     0.25000   0.
    35.50000     0.23000   0.
    36.50000     0.28500   0.
    37.49500     0.41500   0.
    38.49000     0.48000   0.
    39.49000     0.48000   0.
    40.49000     0.51500   0.
    41.49000     0.58500   0.
    42.48500     0.67500   0.
    43.48000     0.75500   0.
    44.48000     0.80500   0.
    45.48000     0.85500   0.
    46.48000     0.90500   0.
    47.48000     0.95500   0.
    48.48000     0.96000   0.
    49.48000     0.92000   0.
    50.48000     0.88000   0.
    51.48000     0.84000   0.
    52.48000     0.85000   0.
    53.48000     0.90500   0.
    54.48000     0.91000   0.
    55.48000     0.87000   0.
    56.48000     0.82500   0.
    57.48000     0.77500   0.
    58.48000     0.76500   0.
    59.48000     0.79000   0.
    60.48000     0.80000   0.
    61.48000     0.80000   0.
    62.48500     0.80500   0.
    63.49000     0.81500   0.
    64.49000     0.81500   0.
    65.49000     0.81000   0.
    66.49000     0.82000   0.
    67.49000     0.84000   0.
    68.49000     0.86000   0.
    69.49000     0.88500   0.
    70.49000     0.95000   0.
    71.48500     1.05000   0.
    72.48000     1.15000   0.
    73.48000     1.24500   0.
    74.48000     1.31500   0.
    75.47500     1.37000   0.
    76.47000     1.43000   0.
    77.47000     1.48500   0.
    78.47000     1.46000   0.
    79.47000     1.36500   0.
    80.47000     1.34500   0.
    81.47000     1.39500   0.
    82.47000     1.39500   0.
    83.47000     1.34500   0.
    84.47000     1.33500   0.
    85.47000     1.36000   0.
    86.47000     1.38500   0.
    87.47000     1.41000   0.
    88.47000     1.40500   0.
    89.47000     1.38000   0.
    90.47000     1.39500   0.
    91.47000     1.44500   0.
    92.47000     1.47500   0.
    93.47000     1.48500   0.
    94.47000     1.49500   0.
    95.47500     1.50000   0.
    96.48000     1.51000   0.
    97.48000     1.53000   0.
    98.48000     1.54000   0.
    99.48000     1.54000   0.
   100.48000     1.56000   0.
   101.48000     1.59500   0.
   102.48000     1.60500   0.
   103.48000     1.59500   0.
   104.48000     1.60500   0.
   105.48000     1.63000   0.
   106.48000     1.66000   0.
   107.48000     1.69500   0.
   108.48000     1.72000   0.
   109.48500     1.74500   0.
   110.49000     1.78500   0.
   111.49000     1.83000   0.
   112.49000     1.84500   0.
   113.49000     1.83500   0.
   114.49000     1.83500   0.
   115.49000     1.84500   0.
   116.49000     1.85500   0.
   117.49000     1.86000   0.
   118.49000     1.84500   0.
   119.49000     1.82000   0.
   120.49000     1.83500   0.
   121.49000     1.88500   0.
   122.49000     1.93500   0.
   123.49000     1.99500   0.
   124.49000     2.08500   0.
   125.48500     2.19500   0.
   126.48000     2.29500   0.
   127.68746     2.34000   0.
   128.67523     2.34000   0.
   130.05439     2.34000   0.
    -3.37000    -5.00000   0.
    -0.11000    -4.96000   0.
     3.15000    -4.87500   0.
     6.41500    -4.82500   0.
     9.68000    -4.90500   0.
    12.94000    -5.06000   0.
    16.20000    -5.12500   0.
    19.46000    -5.09500   0.
    22.72000    -5.04000   0.
    25.98000    -4.96000   0.
    29.24500    -4.88000   0.
    32.51000    -4.79500   0.
    35.77000    -4.66500   0.
    39.03000    -4.53000   0.
    42.29000    -4.34500   0.
    45.55000    -4.14000   0.
    48.81000    -4.09000   0.
    52.07000    -4.10500   0.
    55.33500    -4.14500   0.
    58.60000    -4.20000   0.
[...]
POINT_DATA      2188
CELL_DATA      4025
SCALARS Resistivity(ohm.m) double 1
LOOKUP_TABLE default
           564.09787           443.49120          2314.39384          1305.47235          1719.16032           287.19231          1040.77694          1035.01474           837.27678           539.49059           317.32852          1038.25059          1482.91039           801.04232           778.51958          2561.21034          1227.91882           887.69707           315.53425           722.90674           838.16446           458.78846           562.98961           449.40056          1028.08611           375.42532          3664.26920           276.37385          2864.95235           177.91390           276.23288          1903.14834          1183.13847          1686.92776           283.72483           354.48054          1055.80419          1200.34912           237.19056           841.40068           399.42093          1922.21483         39108.37441           509.31982           933.52325          1421.95140          1340.93355           288.53878          1783.56809           325.68420           813.77795           550.32558           362.24819           138.62414           278.36639          1206.67991           553.03259           389.26703           324.78433           497.52065          1126.42459           899.32432           380.35137           363.91027           850.62800         26624.80423           150.02007          2385.93739          1096.29405           886.47745          2933.34032           909.65038           327.07316           325.35203           304.69905           432.48231           502.56408           277.37723           808.38194          3433.39314           463.94654           444.62366           897.59903           283.11311           798.61096           881.43544           172.62023           668.72606           213.39964           289.18217           360.98507           927.07709          1898.15533           856.11509           181.58338          1766.71375          1079.53120           569.98784          1300.82955           459.07620          1210.46150           747.26844          1519.59700          1472.45604          1098.06462           391.54337          1914.34154          1664.87920          1887.60904           694.13134           325.83954          2324.13654           946.85399           364.00135          1186.37875          1000.87769         14582.20436           690.35174          1006.99697           401.35899           389.12852          1649.78059          2153.34312           290.10647           183.49966          2215.01424           431.73969           516.95211          1159.42175          1837.25509          1118.51288           284.72644          1438.89192           533.90567           183.81411          1379.04111          1392.30975          1439.75872          1260.10695          1337.43925           479.61799           210.59651           234.77816           196.19501           156.37894           884.83183           445.97007          2105.71075           170.58748          1793.50071          1513.64808           717.04551           851.00303           742.54093          2018.72898           513.26813          1570.54488           334.52119           545.69828          2896.61581           327.74901          1309.14060          1683.00147           503.34309           930.62309           274.92836          1292.61971          1250.25881          1636.48443          1202.90502           494.25819           875.60627           902.38324           853.05356           275.96994           330.39818           276.16100           514.97156          1464.36230          1534.34161          1682.43590          1368.00334           232.26779           512.84424           354.76656           506.07484          1067.78477           340.13475           775.19958           530.04003           275.31666          1246.87453          1829.99260          2662.99435           321.39858          3675.27199           889.19645           867.70054         10486.42648          1261.80207           497.92946           251.95350           539.73987           804.04907           722.06258           609.18861           186.87989           435.91078          1470.04006          1543.98647          3139.10859          1012.42130           539.27466          1744.01160          1002.02727           195.21990          1416.97877          1307.11681           272.03793          1415.22661          2489.09281          1775.66768           313.31437           526.69375           724.78073           777.37668           433.49776          8209.02485          2469.29957           691.47464          2310.37126           757.49968          1635.34472           728.79678          1195.66061          1698.14236           444.23652           927.46555           895.45142          1211.08153          1788.21483          1344.20840          1585.11646           998.99521           342.68389          1554.69691          3430.78203           941.90620          1379.22726          1709.59081           331.76917          1519.59105           339.45773          1213.18381           477.10391           524.14296           832.59959         34638.96915          1123.59277          1577.75784           222.46826           750.67455           798.63080          1739.30681          1165.15591           922.55680          1244.20769          2135.91864          1330.54678          2422.52123           307.47445          5551.54305          2210.96995          1067.07609          1657.72083           652.00859          2255.65193          1680.04829           816.72378          2061.98774          5010.63076           932.98591           788.70794         30010.44184          1189.54457          1267.62116           946.33442           859.04803          1617.68639          1875.32388           323.16856           504.49859           845.85444           905.49214          1392.23355          1398.38496           426.28403          1250.42998           538.56832           271.89148           284.56496           564.29835          1528.18491           670.82810           524.05877          1720.49585           408.66142           882.89362           329.79888          1152.84196          6574.29302          4718.50813           939.85898          1457.31709           605.59088           485.33954          1423.41295           181.33479          1196.54941           886.06530           261.96237          1715.42680          1765.32229           306.49603          1444.35069          2088.66196           196.15746           772.57368          3071.89755          1842.92449           196.65258           776.02373           299.63296           851.16390           184.81067          1185.66876          1139.99063          1759.65432          1777.48477          1675.97068           663.45900           882.37299          1763.17070          1535.86857           620.02468           880.58256           290.50935           154.51557           250.45227          1827.62234           268.86932          2421.52113          1695.60687           625.01244          1810.21728           781.55256          1759.63304           871.98895         14411.93002           907.50193           284.18671           533.60574           865.39317           845.61567           605.43976           429.16729           800.76154           241.56787          1727.86446          2415.69157           641.48446           336.52664           285.28178          1405.63914          1920.56040           239.09425           612.48242           275.40970           411.96656           478.83584          1186.42869          1666.33340           262.51117          1426.25962          1856.81505           223.16406           532.24193           589.73485          2450.93765         47045.63996          1036.16320           270.41647          1837.20466           480.07334           260.93645           894.04796           335.00920          2706.67434          8713.63247           844.59186           320.20770          1818.39939           155.79918           196.91416          1125.13537           384.01532          1357.83287           264.93653           787.36419          1417.30083           428.20885          1131.35050           170.19069           705.92539           296.03507           904.66107          1096.89456           310.88219           619.03594          2393.85432          1765.97790          1113.69413           627.40131           198.40496           952.02393          1672.19434          1088.90519          3016.26227           420.69631           504.61940          1720.33876           354.86214           830.21158          1498.21540           750.83943          1121.68918           724.64709          3342.72307           254.08262           882.65947           476.41077           994.33697           379.57990          1903.08154          1575.08495          1169.20029          2331.44474           433.08152           366.49452          2101.17319          1844.99055           256.41807           165.73440           718.08788          2113.13733          1711.72075           264.23178           846.35671          1327.47036          1162.04356           591.68149           371.89277           857.09085          5142.60927          9134.84133           164.20498           323.19670          1871.48919           251.81089           325.27914           534.98288           212.76402          1666.15512           300.22392           614.43548          1107.96971           654.24098           370.56917           537.14137          1127.01098          1097.81359           606.88810           248.83995           791.53537           236.92767          1829.20915           592.33937           639.14501           413.05443         18496.73748          9727.71551          1575.48945           960.86202           405.73467           320.00977           553.19940           494.16353           744.95312           848.65423          1753.49620          1144.60751           334.68394          1112.35320          1151.18965           885.41109           392.39191           736.73969          2007.87371          1760.21090          1241.91066           829.27209           887.06898           874.03740           880.37798           896.74747           286.76405           348.46634           450.68924           253.18935          1778.44797           585.02268           324.07299           913.07727          1756.13124           685.88384           254.47546           884.18751          1647.86026           295.55562          1854.00489           868.53166           366.72433          5999.60212          1547.82036          1744.61391           548.40545          3497.39207          1640.38820          1681.02507           919.43812           340.75437           199.40099           169.11575           292.93207           164.40463           835.80055          1761.48044          1990.63047          2604.85618           178.76645           247.84146           931.57027           565.50615           809.92888           569.58164          1755.25540          1146.85213           198.60341           504.20927           162.90994           599.77177           734.78623           166.09265           734.27216           304.14929          1663.57743           927.50031           978.90637           393.89330          1474.69448           879.75282           218.32798          1641.74358           351.18729           258.92587          1324.60905           764.48102           258.53982          1802.93924          1763.97031           701.04542           697.69205           974.35532          1736.23901           889.44577          5042.11733          4511.88509           884.81176          1720.14579           902.04491           504.37150           857.38352           870.45445           635.46356           647.14982           718.87130          2004.28353           409.34143          1550.65841           903.14601           648.11825           230.70612           846.19358           875.46909           855.07053           295.43928           224.01403           465.90430          1747.65814           890.53533          1742.35998           282.26512          1746.45585           426.03430           601.18407           908.85070           800.21169          1081.68191          1071.37309           883.36778          1030.47737           272.03940           945.35738          1749.98654          1536.87475          5354.60544          3127.97616           926.68191           826.98239           580.48456           298.49227          1740.20421           463.91276           603.07845           608.83734           887.46886           890.45534          1625.76373           761.24394           878.02146          1768.01462           888.63810           217.97643           251.93688          2018.48996           837.18150           298.78064           413.66030           830.20978         10486.77545          1740.12060           261.63504          2333.19256          1037.53533           599.20003          1786.53610          1087.52458           221.96599          1779.67139           253.75343           278.43365          1256.84417           332.34677           745.75132           925.82902           819.92941          2502.54460          1732.36354          1727.40204           298.74391           425.46441          3940.63383           898.44623           942.17463          1747.76217           251.11595          1381.01033          1724.88184          1735.54453           899.46916           673.72893          2385.82890          6330.97041           775.44321          4434.10367           552.48901           394.45008           601.65031          1751.64543           596.47374          1810.04507           900.44743          1211.37409           899.00128           705.83645           878.77057          1716.86977          1737.81889           854.00485          1816.40373          1293.00022          1148.42146          1748.71204           463.49493           151.55213           653.78296          1705.70960           865.13976           864.02452           225.23676           824.02722           307.02562           869.41343          1843.97629           343.11691          1696.02113           174.80214           392.83104          1209.46200           537.40780           379.54337           462.21969           863.20266           703.07726           149.00801          1772.96077           895.11454           891.64658           760.66785           808.93984          1733.87250          1918.53664          1586.30686           522.93722          1321.12242         22339.44672           492.71895          1753.51635          1106.73537          1968.52506           927.46315          1683.18679          3696.02576           344.56835           889.10455          1037.99283           434.50072          1956.89531          1084.83408           327.72813          1802.60297           250.79317           476.69648           827.94219           500.74882          2961.20751           698.74175           208.22966          1737.14205           580.84162           440.11708           842.93278           841.29782           650.91295          1308.29349          2538.31317           443.73343           745.35539           374.03598          2278.19674          2107.54978           525.07662         66549.19495           799.39187           231.71302          2232.93902           736.48639           270.83719           541.20048           644.90529           426.20020           345.36345          1066.88199          2129.80998           887.90165           876.10308           245.80112          1859.56280           221.89692           319.74007           312.05355          1702.54646          1299.60329          1771.45899          1393.63605          3820.13380          1795.43747           232.00953           271.64459           785.47330           835.32900          2221.39907           262.19859           869.21882           472.84986          4336.14574          4247.43175           540.78975           834.22028           243.57975           887.44890           302.62017          1573.25586          1933.91023           617.09021           358.51335          1741.67915          1206.99357           685.49419           886.67250           277.23505           886.64389           284.23560           185.56092          1052.70990          5161.47174           889.81267          1491.98502          1004.04864          1714.90597          1760.84515           375.23698          1255.65472           284.83998           870.72065           336.05166           293.40517          1777.18596          2147.95411           876.41308           184.60248          1189.38583          2598.00407           848.50852           440.76001           375.85782           803.42910          1877.95684           301.81304           859.55006           282.17678           791.54143           758.67302           893.39568          1745.79157          1996.71980           957.67427          3099.71865          2059.48080          1320.49049           346.30556          1586.79758           561.79963           313.18861           745.10222           733.33183           782.20200          2031.47042          3277.51850           440.72411           279.84168          1537.07350          1745.06990           889.08387          1828.46168          2721.58657           983.51808          2395.74144          1002.81988          2618.23416           403.36702          1737.63114           298.32364           277.81360          1735.00766          2332.28974           781.55797           894.01291          1095.11409          2186.72922           881.74860           892.44887          1031.04063          1717.60439           391.87021           290.35761          2149.03103           718.72399           256.12526           301.15901           948.46675           911.17538           481.65311           883.11310           752.45225          1190.06201          1744.94486           475.38603           889.14852           911.27794           984.57298          1749.12747          7209.26575           464.90803          1739.67983           234.12091           818.55882          1753.63116           550.02677          1797.72477          1809.22538          1940.75113           999.38956           556.09453         12361.19858           890.53865           966.39993           565.99406           871.94058           769.53786           713.33261          1791.77221          1111.41490          2675.90729          1749.52447          1783.78731          1237.60992          1780.35002          4424.97600          1839.70925           869.62180           506.92805           318.51149           372.51477           976.62525          1731.59155           323.55343           914.98447           657.99804           921.64304           837.40019          1733.68096          1765.96880           957.38794          1967.84196           881.36966           748.57700           570.76204          1744.38214          1730.68290           348.97270          1825.08916           623.02517          2021.21639          1731.51036           897.03247           561.68040           855.86314           254.28119           371.55961           633.93531          1901.68778           696.83240          1138.35006           520.69097           847.82180           877.43915           872.74814          1091.00378           887.40302          2207.13435           731.56727           622.60590           600.63476           938.03733           300.16471           281.03121           291.03126           269.43090           891.57822          2379.46712           432.27677          4330.38341           896.80095           305.98887  